+ 0.5 0 1 cbr 210 ------- 0 0.0 1.0 0 0
- 0.5 0 1 cbr 210 ------- 0 0.0 1.0 0 0
+ 0.50375 0 1 cbr 210 ------- 0 0.0 1.0 1 1
- 0.50375 0 1 cbr 210 ------- 0 0.0 1.0 1 1
+ 0.5075 0 1 cbr 210 ------- 0 0.0 1.0 2 2
- 0.5075 0 1 cbr 210 ------- 0 0.0 1.0 2 2
+ 0.51125 0 1 cbr 210 ------- 0 0.0 1.0 3 3
- 0.51125 0 1 cbr 210 ------- 0 0.0 1.0 3 3
r 0.51168 0 1 cbr 210 ------- 0 0.0 1.0 0 0
+ 0.515 0 1 cbr 210 ------- 0 0.0 1.0 4 4
- 0.515 0 1 cbr 210 ------- 0 0.0 1.0 4 4
r 0.51543 0 1 cbr 210 ------- 0 0.0 1.0 1 1
+ 0.51875 0 1 cbr 210 ------- 0 0.0 1.0 5 5
- 0.51875 0 1 cbr 210 ------- 0 0.0 1.0 5 5
r 0.51918 0 1 cbr 210 ------- 0 0.0 1.0 2 2
+ 0.5225 0 1 cbr 210 ------- 0 0.0 1.0 6 6
- 0.5225 0 1 cbr 210 ------- 0 0.0 1.0 6 6
r 0.52293 0 1 cbr 210 ------- 0 0.0 1.0 3 3
+ 0.52625 0 1 cbr 210 ------- 0 0.0 1.0 7 7
- 0.52625 0 1 cbr 210 ------- 0 0.0 1.0 7 7
r 0.52668 0 1 cbr 210 ------- 0 0.0 1.0 4 4
+ 0.53 0 1 cbr 210 ------- 0 0.0 1.0 8 8
- 0.53 0 1 cbr 210 ------- 0 0.0 1.0 8 8
r 0.53043 0 1 cbr 210 ------- 0 0.0 1.0 5 5
+ 0.53375 0 1 cbr 210 ------- 0 0.0 1.0 9 9
- 0.53375 0 1 cbr 210 ------- 0 0.0 1.0 9 9
r 0.53418 0 1 cbr 210 ------- 0 0.0 1.0 6 6
+ 0.5375 0 1 cbr 210 ------- 0 0.0 1.0 10 10
- 0.5375 0 1 cbr 210 ------- 0 0.0 1.0 10 10
r 0.53793 0 1 cbr 210 ------- 0 0.0 1.0 7 7
+ 0.54125 0 1 cbr 210 ------- 0 0.0 1.0 11 11
- 0.54125 0 1 cbr 210 ------- 0 0.0 1.0 11 11
r 0.54168 0 1 cbr 210 ------- 0 0.0 1.0 8 8
+ 0.545 0 1 cbr 210 ------- 0 0.0 1.0 12 12
- 0.545 0 1 cbr 210 ------- 0 0.0 1.0 12 12
r 0.54543 0 1 cbr 210 ------- 0 0.0 1.0 9 9
+ 0.54875 0 1 cbr 210 ------- 0 0.0 1.0 13 13
- 0.54875 0 1 cbr 210 ------- 0 0.0 1.0 13 13
r 0.54918 0 1 cbr 210 ------- 0 0.0 1.0 10 10
+ 0.5525 0 1 cbr 210 ------- 0 0.0 1.0 14 14
- 0.5525 0 1 cbr 210 ------- 0 0.0 1.0 14 14
r 0.55293 0 1 cbr 210 ------- 0 0.0 1.0 11 11
+ 0.55625 0 1 cbr 210 ------- 0 0.0 1.0 15 15
- 0.55625 0 1 cbr 210 ------- 0 0.0 1.0 15 15
r 0.55668 0 1 cbr 210 ------- 0 0.0 1.0 12 12
+ 0.56 0 1 cbr 210 ------- 0 0.0 1.0 16 16
- 0.56 0 1 cbr 210 ------- 0 0.0 1.0 16 16
r 0.56043 0 1 cbr 210 ------- 0 0.0 1.0 13 13
+ 0.56375 0 1 cbr 210 ------- 0 0.0 1.0 17 17
- 0.56375 0 1 cbr 210 ------- 0 0.0 1.0 17 17
r 0.56418 0 1 cbr 210 ------- 0 0.0 1.0 14 14
+ 0.5675 0 1 cbr 210 ------- 0 0.0 1.0 18 18
- 0.5675 0 1 cbr 210 ------- 0 0.0 1.0 18 18
r 0.56793 0 1 cbr 210 ------- 0 0.0 1.0 15 15
+ 0.57125 0 1 cbr 210 ------- 0 0.0 1.0 19 19
- 0.57125 0 1 cbr 210 ------- 0 0.0 1.0 19 19
r 0.57168 0 1 cbr 210 ------- 0 0.0 1.0 16 16
+ 0.575 0 1 cbr 210 ------- 0 0.0 1.0 20 20
- 0.575 0 1 cbr 210 ------- 0 0.0 1.0 20 20
r 0.57543 0 1 cbr 210 ------- 0 0.0 1.0 17 17
+ 0.57875 0 1 cbr 210 ------- 0 0.0 1.0 21 21
- 0.57875 0 1 cbr 210 ------- 0 0.0 1.0 21 21
r 0.57918 0 1 cbr 210 ------- 0 0.0 1.0 18 18
+ 0.5825 0 1 cbr 210 ------- 0 0.0 1.0 22 22
- 0.5825 0 1 cbr 210 ------- 0 0.0 1.0 22 22
r 0.58293 0 1 cbr 210 ------- 0 0.0 1.0 19 19
+ 0.58625 0 1 cbr 210 ------- 0 0.0 1.0 23 23
- 0.58625 0 1 cbr 210 ------- 0 0.0 1.0 23 23
r 0.58668 0 1 cbr 210 ------- 0 0.0 1.0 20 20
+ 0.59 0 1 cbr 210 ------- 0 0.0 1.0 24 24
- 0.59 0 1 cbr 210 ------- 0 0.0 1.0 24 24
r 0.59043 0 1 cbr 210 ------- 0 0.0 1.0 21 21
+ 0.59375 0 1 cbr 210 ------- 0 0.0 1.0 25 25
- 0.59375 0 1 cbr 210 ------- 0 0.0 1.0 25 25
r 0.59418 0 1 cbr 210 ------- 0 0.0 1.0 22 22
+ 0.5975 0 1 cbr 210 ------- 0 0.0 1.0 26 26
- 0.5975 0 1 cbr 210 ------- 0 0.0 1.0 26 26
r 0.59793 0 1 cbr 210 ------- 0 0.0 1.0 23 23
+ 0.6 0 3 cbr 210 ------- 0 0.1 3.0 0 27
- 0.6 0 3 cbr 210 ------- 0 0.1 3.0 0 27
+ 0.60125 0 1 cbr 210 ------- 0 0.0 1.0 27 28
- 0.60125 0 1 cbr 210 ------- 0 0.0 1.0 27 28
r 0.60168 0 1 cbr 210 ------- 0 0.0 1.0 24 24
+ 0.60375 0 3 cbr 210 ------- 0 0.1 3.0 1 29
- 0.60375 0 3 cbr 210 ------- 0 0.1 3.0 1 29
+ 0.605 0 1 cbr 210 ------- 0 0.0 1.0 28 30
- 0.605 0 1 cbr 210 ------- 0 0.0 1.0 28 30
r 0.60543 0 1 cbr 210 ------- 0 0.0 1.0 25 25
+ 0.6075 0 3 cbr 210 ------- 0 0.1 3.0 2 31
- 0.6075 0 3 cbr 210 ------- 0 0.1 3.0 2 31
+ 0.60875 0 1 cbr 210 ------- 0 0.0 1.0 29 32
- 0.60875 0 1 cbr 210 ------- 0 0.0 1.0 29 32
r 0.60918 0 1 cbr 210 ------- 0 0.0 1.0 26 26
+ 0.61125 0 3 cbr 210 ------- 0 0.1 3.0 3 33
- 0.61125 0 3 cbr 210 ------- 0 0.1 3.0 3 33
r 0.61168 0 3 cbr 210 ------- 0 0.1 3.0 0 27
+ 0.6125 0 1 cbr 210 ------- 0 0.0 1.0 30 34
- 0.6125 0 1 cbr 210 ------- 0 0.0 1.0 30 34
r 0.61293 0 1 cbr 210 ------- 0 0.0 1.0 27 28
+ 0.615 0 3 cbr 210 ------- 0 0.1 3.0 4 35
- 0.615 0 3 cbr 210 ------- 0 0.1 3.0 4 35
r 0.61543 0 3 cbr 210 ------- 0 0.1 3.0 1 29
+ 0.61625 0 1 cbr 210 ------- 0 0.0 1.0 31 36
- 0.61625 0 1 cbr 210 ------- 0 0.0 1.0 31 36
r 0.61668 0 1 cbr 210 ------- 0 0.0 1.0 28 30
+ 0.61875 0 3 cbr 210 ------- 0 0.1 3.0 5 37
- 0.61875 0 3 cbr 210 ------- 0 0.1 3.0 5 37
r 0.61918 0 3 cbr 210 ------- 0 0.1 3.0 2 31
+ 0.62 0 1 cbr 210 ------- 0 0.0 1.0 32 38
- 0.62 0 1 cbr 210 ------- 0 0.0 1.0 32 38
r 0.62043 0 1 cbr 210 ------- 0 0.0 1.0 29 32
+ 0.6225 0 3 cbr 210 ------- 0 0.1 3.0 6 39
- 0.6225 0 3 cbr 210 ------- 0 0.1 3.0 6 39
r 0.62293 0 3 cbr 210 ------- 0 0.1 3.0 3 33
+ 0.62375 0 1 cbr 210 ------- 0 0.0 1.0 33 40
- 0.62375 0 1 cbr 210 ------- 0 0.0 1.0 33 40
r 0.62418 0 1 cbr 210 ------- 0 0.0 1.0 30 34
+ 0.62625 0 3 cbr 210 ------- 0 0.1 3.0 7 41
- 0.62625 0 3 cbr 210 ------- 0 0.1 3.0 7 41
r 0.62668 0 3 cbr 210 ------- 0 0.1 3.0 4 35
+ 0.6275 0 1 cbr 210 ------- 0 0.0 1.0 34 42
- 0.6275 0 1 cbr 210 ------- 0 0.0 1.0 34 42
r 0.62793 0 1 cbr 210 ------- 0 0.0 1.0 31 36
+ 0.63 0 3 cbr 210 ------- 0 0.1 3.0 8 43
- 0.63 0 3 cbr 210 ------- 0 0.1 3.0 8 43
r 0.63043 0 3 cbr 210 ------- 0 0.1 3.0 5 37
+ 0.63125 0 1 cbr 210 ------- 0 0.0 1.0 35 44
- 0.63125 0 1 cbr 210 ------- 0 0.0 1.0 35 44
r 0.63168 0 1 cbr 210 ------- 0 0.0 1.0 32 38
+ 0.63375 0 3 cbr 210 ------- 0 0.1 3.0 9 45
- 0.63375 0 3 cbr 210 ------- 0 0.1 3.0 9 45
r 0.63418 0 3 cbr 210 ------- 0 0.1 3.0 6 39
+ 0.635 0 1 cbr 210 ------- 0 0.0 1.0 36 46
- 0.635 0 1 cbr 210 ------- 0 0.0 1.0 36 46
r 0.63543 0 1 cbr 210 ------- 0 0.0 1.0 33 40
+ 0.6375 0 3 cbr 210 ------- 0 0.1 3.0 10 47
- 0.6375 0 3 cbr 210 ------- 0 0.1 3.0 10 47
r 0.63793 0 3 cbr 210 ------- 0 0.1 3.0 7 41
+ 0.63875 0 1 cbr 210 ------- 0 0.0 1.0 37 48
- 0.63875 0 1 cbr 210 ------- 0 0.0 1.0 37 48
r 0.63918 0 1 cbr 210 ------- 0 0.0 1.0 34 42
+ 0.64125 0 3 cbr 210 ------- 0 0.1 3.0 11 49
- 0.64125 0 3 cbr 210 ------- 0 0.1 3.0 11 49
r 0.64168 0 3 cbr 210 ------- 0 0.1 3.0 8 43
+ 0.6425 0 1 cbr 210 ------- 0 0.0 1.0 38 50
- 0.6425 0 1 cbr 210 ------- 0 0.0 1.0 38 50
r 0.64293 0 1 cbr 210 ------- 0 0.0 1.0 35 44
+ 0.645 0 3 cbr 210 ------- 0 0.1 3.0 12 51
- 0.645 0 3 cbr 210 ------- 0 0.1 3.0 12 51
r 0.64543 0 3 cbr 210 ------- 0 0.1 3.0 9 45
+ 0.64625 0 1 cbr 210 ------- 0 0.0 1.0 39 52
- 0.64625 0 1 cbr 210 ------- 0 0.0 1.0 39 52
r 0.64668 0 1 cbr 210 ------- 0 0.0 1.0 36 46
+ 0.64875 0 3 cbr 210 ------- 0 0.1 3.0 13 53
- 0.64875 0 3 cbr 210 ------- 0 0.1 3.0 13 53
r 0.64918 0 3 cbr 210 ------- 0 0.1 3.0 10 47
+ 0.65 0 1 cbr 210 ------- 0 0.0 1.0 40 54
- 0.65 0 1 cbr 210 ------- 0 0.0 1.0 40 54
r 0.65043 0 1 cbr 210 ------- 0 0.0 1.0 37 48
+ 0.6525 0 3 cbr 210 ------- 0 0.1 3.0 14 55
- 0.6525 0 3 cbr 210 ------- 0 0.1 3.0 14 55
r 0.65293 0 3 cbr 210 ------- 0 0.1 3.0 11 49
+ 0.65375 0 1 cbr 210 ------- 0 0.0 1.0 41 56
- 0.65375 0 1 cbr 210 ------- 0 0.0 1.0 41 56
r 0.65418 0 1 cbr 210 ------- 0 0.0 1.0 38 50
+ 0.65625 0 3 cbr 210 ------- 0 0.1 3.0 15 57
- 0.65625 0 3 cbr 210 ------- 0 0.1 3.0 15 57
r 0.65668 0 3 cbr 210 ------- 0 0.1 3.0 12 51
+ 0.6575 0 1 cbr 210 ------- 0 0.0 1.0 42 58
- 0.6575 0 1 cbr 210 ------- 0 0.0 1.0 42 58
r 0.65793 0 1 cbr 210 ------- 0 0.0 1.0 39 52
+ 0.66 0 3 cbr 210 ------- 0 0.1 3.0 16 59
- 0.66 0 3 cbr 210 ------- 0 0.1 3.0 16 59
r 0.66043 0 3 cbr 210 ------- 0 0.1 3.0 13 53
+ 0.66125 0 1 cbr 210 ------- 0 0.0 1.0 43 60
- 0.66125 0 1 cbr 210 ------- 0 0.0 1.0 43 60
r 0.66168 0 1 cbr 210 ------- 0 0.0 1.0 40 54
+ 0.66375 0 3 cbr 210 ------- 0 0.1 3.0 17 61
- 0.66375 0 3 cbr 210 ------- 0 0.1 3.0 17 61
r 0.66418 0 3 cbr 210 ------- 0 0.1 3.0 14 55
+ 0.665 0 1 cbr 210 ------- 0 0.0 1.0 44 62
- 0.665 0 1 cbr 210 ------- 0 0.0 1.0 44 62
r 0.66543 0 1 cbr 210 ------- 0 0.0 1.0 41 56
+ 0.6675 0 3 cbr 210 ------- 0 0.1 3.0 18 63
- 0.6675 0 3 cbr 210 ------- 0 0.1 3.0 18 63
r 0.66793 0 3 cbr 210 ------- 0 0.1 3.0 15 57
+ 0.66875 0 1 cbr 210 ------- 0 0.0 1.0 45 64
- 0.66875 0 1 cbr 210 ------- 0 0.0 1.0 45 64
r 0.66918 0 1 cbr 210 ------- 0 0.0 1.0 42 58
+ 0.67125 0 3 cbr 210 ------- 0 0.1 3.0 19 65
- 0.67125 0 3 cbr 210 ------- 0 0.1 3.0 19 65
r 0.67168 0 3 cbr 210 ------- 0 0.1 3.0 16 59
+ 0.6725 0 1 cbr 210 ------- 0 0.0 1.0 46 66
- 0.6725 0 1 cbr 210 ------- 0 0.0 1.0 46 66
r 0.67293 0 1 cbr 210 ------- 0 0.0 1.0 43 60
+ 0.675 0 3 cbr 210 ------- 0 0.1 3.0 20 67
- 0.675 0 3 cbr 210 ------- 0 0.1 3.0 20 67
r 0.67543 0 3 cbr 210 ------- 0 0.1 3.0 17 61
+ 0.67625 0 1 cbr 210 ------- 0 0.0 1.0 47 68
- 0.67625 0 1 cbr 210 ------- 0 0.0 1.0 47 68
r 0.67668 0 1 cbr 210 ------- 0 0.0 1.0 44 62
+ 0.67875 0 3 cbr 210 ------- 0 0.1 3.0 21 69
- 0.67875 0 3 cbr 210 ------- 0 0.1 3.0 21 69
r 0.67918 0 3 cbr 210 ------- 0 0.1 3.0 18 63
+ 0.68 0 1 cbr 210 ------- 0 0.0 1.0 48 70
- 0.68 0 1 cbr 210 ------- 0 0.0 1.0 48 70
r 0.68043 0 1 cbr 210 ------- 0 0.0 1.0 45 64
+ 0.6825 0 3 cbr 210 ------- 0 0.1 3.0 22 71
- 0.6825 0 3 cbr 210 ------- 0 0.1 3.0 22 71
r 0.68293 0 3 cbr 210 ------- 0 0.1 3.0 19 65
+ 0.68375 0 1 cbr 210 ------- 0 0.0 1.0 49 72
- 0.68375 0 1 cbr 210 ------- 0 0.0 1.0 49 72
r 0.68418 0 1 cbr 210 ------- 0 0.0 1.0 46 66
+ 0.68625 0 3 cbr 210 ------- 0 0.1 3.0 23 73
- 0.68625 0 3 cbr 210 ------- 0 0.1 3.0 23 73
r 0.68668 0 3 cbr 210 ------- 0 0.1 3.0 20 67
+ 0.6875 0 1 cbr 210 ------- 0 0.0 1.0 50 74
- 0.6875 0 1 cbr 210 ------- 0 0.0 1.0 50 74
r 0.68793 0 1 cbr 210 ------- 0 0.0 1.0 47 68
+ 0.69 0 3 cbr 210 ------- 0 0.1 3.0 24 75
- 0.69 0 3 cbr 210 ------- 0 0.1 3.0 24 75
r 0.69043 0 3 cbr 210 ------- 0 0.1 3.0 21 69
+ 0.69125 0 1 cbr 210 ------- 0 0.0 1.0 51 76
- 0.69125 0 1 cbr 210 ------- 0 0.0 1.0 51 76
r 0.69168 0 1 cbr 210 ------- 0 0.0 1.0 48 70
+ 0.69375 0 3 cbr 210 ------- 0 0.1 3.0 25 77
- 0.69375 0 3 cbr 210 ------- 0 0.1 3.0 25 77
r 0.69418 0 3 cbr 210 ------- 0 0.1 3.0 22 71
+ 0.695 0 1 cbr 210 ------- 0 0.0 1.0 52 78
- 0.695 0 1 cbr 210 ------- 0 0.0 1.0 52 78
r 0.69543 0 1 cbr 210 ------- 0 0.0 1.0 49 72
+ 0.6975 0 3 cbr 210 ------- 0 0.1 3.0 26 79
- 0.6975 0 3 cbr 210 ------- 0 0.1 3.0 26 79
r 0.69793 0 3 cbr 210 ------- 0 0.1 3.0 23 73
+ 0.69875 0 1 cbr 210 ------- 0 0.0 1.0 53 80
- 0.69875 0 1 cbr 210 ------- 0 0.0 1.0 53 80
r 0.69918 0 1 cbr 210 ------- 0 0.0 1.0 50 74
+ 0.70125 0 3 cbr 210 ------- 0 0.1 3.0 27 81
- 0.70125 0 3 cbr 210 ------- 0 0.1 3.0 27 81
r 0.70168 0 3 cbr 210 ------- 0 0.1 3.0 24 75
+ 0.7025 0 1 cbr 210 ------- 0 0.0 1.0 54 82
- 0.7025 0 1 cbr 210 ------- 0 0.0 1.0 54 82
r 0.70293 0 1 cbr 210 ------- 0 0.0 1.0 51 76
+ 0.705 0 3 cbr 210 ------- 0 0.1 3.0 28 83
- 0.705 0 3 cbr 210 ------- 0 0.1 3.0 28 83
r 0.70543 0 3 cbr 210 ------- 0 0.1 3.0 25 77
+ 0.70625 0 1 cbr 210 ------- 0 0.0 1.0 55 84
- 0.70625 0 1 cbr 210 ------- 0 0.0 1.0 55 84
r 0.70668 0 1 cbr 210 ------- 0 0.0 1.0 52 78
+ 0.70875 0 3 cbr 210 ------- 0 0.1 3.0 29 85
- 0.70875 0 3 cbr 210 ------- 0 0.1 3.0 29 85
r 0.70918 0 3 cbr 210 ------- 0 0.1 3.0 26 79
+ 0.71 0 1 cbr 210 ------- 0 0.0 1.0 56 86
- 0.71 0 1 cbr 210 ------- 0 0.0 1.0 56 86
r 0.71043 0 1 cbr 210 ------- 0 0.0 1.0 53 80
+ 0.7125 0 3 cbr 210 ------- 0 0.1 3.0 30 87
- 0.7125 0 3 cbr 210 ------- 0 0.1 3.0 30 87
r 0.71293 0 3 cbr 210 ------- 0 0.1 3.0 27 81
+ 0.71375 0 1 cbr 210 ------- 0 0.0 1.0 57 88
- 0.71375 0 1 cbr 210 ------- 0 0.0 1.0 57 88
r 0.71418 0 1 cbr 210 ------- 0 0.0 1.0 54 82
+ 0.71625 0 3 cbr 210 ------- 0 0.1 3.0 31 89
- 0.71625 0 3 cbr 210 ------- 0 0.1 3.0 31 89
r 0.71668 0 3 cbr 210 ------- 0 0.1 3.0 28 83
+ 0.7175 0 1 cbr 210 ------- 0 0.0 1.0 58 90
- 0.7175 0 1 cbr 210 ------- 0 0.0 1.0 58 90
r 0.71793 0 1 cbr 210 ------- 0 0.0 1.0 55 84
+ 0.72 0 3 cbr 210 ------- 0 0.1 3.0 32 91
- 0.72 0 3 cbr 210 ------- 0 0.1 3.0 32 91
r 0.72043 0 3 cbr 210 ------- 0 0.1 3.0 29 85
+ 0.72125 0 1 cbr 210 ------- 0 0.0 1.0 59 92
- 0.72125 0 1 cbr 210 ------- 0 0.0 1.0 59 92
r 0.72168 0 1 cbr 210 ------- 0 0.0 1.0 56 86
+ 0.72375 0 3 cbr 210 ------- 0 0.1 3.0 33 93
- 0.72375 0 3 cbr 210 ------- 0 0.1 3.0 33 93
r 0.72418 0 3 cbr 210 ------- 0 0.1 3.0 30 87
+ 0.725 0 1 cbr 210 ------- 0 0.0 1.0 60 94
- 0.725 0 1 cbr 210 ------- 0 0.0 1.0 60 94
r 0.72543 0 1 cbr 210 ------- 0 0.0 1.0 57 88
+ 0.7275 0 3 cbr 210 ------- 0 0.1 3.0 34 95
- 0.7275 0 3 cbr 210 ------- 0 0.1 3.0 34 95
r 0.72793 0 3 cbr 210 ------- 0 0.1 3.0 31 89
+ 0.72875 0 1 cbr 210 ------- 0 0.0 1.0 61 96
- 0.72875 0 1 cbr 210 ------- 0 0.0 1.0 61 96
r 0.72918 0 1 cbr 210 ------- 0 0.0 1.0 58 90
+ 0.73125 0 3 cbr 210 ------- 0 0.1 3.0 35 97
- 0.73125 0 3 cbr 210 ------- 0 0.1 3.0 35 97
r 0.73168 0 3 cbr 210 ------- 0 0.1 3.0 32 91
+ 0.7325 0 1 cbr 210 ------- 0 0.0 1.0 62 98
- 0.7325 0 1 cbr 210 ------- 0 0.0 1.0 62 98
r 0.73293 0 1 cbr 210 ------- 0 0.0 1.0 59 92
+ 0.735 0 3 cbr 210 ------- 0 0.1 3.0 36 99
- 0.735 0 3 cbr 210 ------- 0 0.1 3.0 36 99
r 0.73543 0 3 cbr 210 ------- 0 0.1 3.0 33 93
+ 0.73625 0 1 cbr 210 ------- 0 0.0 1.0 63 100
- 0.73625 0 1 cbr 210 ------- 0 0.0 1.0 63 100
r 0.73668 0 1 cbr 210 ------- 0 0.0 1.0 60 94
+ 0.73875 0 3 cbr 210 ------- 0 0.1 3.0 37 101
- 0.73875 0 3 cbr 210 ------- 0 0.1 3.0 37 101
r 0.73918 0 3 cbr 210 ------- 0 0.1 3.0 34 95
+ 0.74 0 1 cbr 210 ------- 0 0.0 1.0 64 102
- 0.74 0 1 cbr 210 ------- 0 0.0 1.0 64 102
r 0.74043 0 1 cbr 210 ------- 0 0.0 1.0 61 96
+ 0.7425 0 3 cbr 210 ------- 0 0.1 3.0 38 103
- 0.7425 0 3 cbr 210 ------- 0 0.1 3.0 38 103
r 0.74293 0 3 cbr 210 ------- 0 0.1 3.0 35 97
+ 0.74375 0 1 cbr 210 ------- 0 0.0 1.0 65 104
- 0.74375 0 1 cbr 210 ------- 0 0.0 1.0 65 104
r 0.74418 0 1 cbr 210 ------- 0 0.0 1.0 62 98
+ 0.74625 0 3 cbr 210 ------- 0 0.1 3.0 39 105
- 0.74625 0 3 cbr 210 ------- 0 0.1 3.0 39 105
r 0.74668 0 3 cbr 210 ------- 0 0.1 3.0 36 99
+ 0.7475 0 1 cbr 210 ------- 0 0.0 1.0 66 106
- 0.7475 0 1 cbr 210 ------- 0 0.0 1.0 66 106
r 0.74793 0 1 cbr 210 ------- 0 0.0 1.0 63 100
+ 0.75 0 3 cbr 210 ------- 0 0.1 3.0 40 107
- 0.75 0 3 cbr 210 ------- 0 0.1 3.0 40 107
r 0.75043 0 3 cbr 210 ------- 0 0.1 3.0 37 101
+ 0.75125 0 1 cbr 210 ------- 0 0.0 1.0 67 108
- 0.75125 0 1 cbr 210 ------- 0 0.0 1.0 67 108
r 0.75168 0 1 cbr 210 ------- 0 0.0 1.0 64 102
+ 0.75375 0 3 cbr 210 ------- 0 0.1 3.0 41 109
- 0.75375 0 3 cbr 210 ------- 0 0.1 3.0 41 109
r 0.75418 0 3 cbr 210 ------- 0 0.1 3.0 38 103
+ 0.755 0 1 cbr 210 ------- 0 0.0 1.0 68 110
- 0.755 0 1 cbr 210 ------- 0 0.0 1.0 68 110
r 0.75543 0 1 cbr 210 ------- 0 0.0 1.0 65 104
+ 0.7575 0 3 cbr 210 ------- 0 0.1 3.0 42 111
- 0.7575 0 3 cbr 210 ------- 0 0.1 3.0 42 111
r 0.75793 0 3 cbr 210 ------- 0 0.1 3.0 39 105
+ 0.75875 0 1 cbr 210 ------- 0 0.0 1.0 69 112
- 0.75875 0 1 cbr 210 ------- 0 0.0 1.0 69 112
r 0.75918 0 1 cbr 210 ------- 0 0.0 1.0 66 106
+ 0.76125 0 3 cbr 210 ------- 0 0.1 3.0 43 113
- 0.76125 0 3 cbr 210 ------- 0 0.1 3.0 43 113
r 0.76168 0 3 cbr 210 ------- 0 0.1 3.0 40 107
+ 0.7625 0 1 cbr 210 ------- 0 0.0 1.0 70 114
- 0.7625 0 1 cbr 210 ------- 0 0.0 1.0 70 114
r 0.76293 0 1 cbr 210 ------- 0 0.0 1.0 67 108
+ 0.765 0 3 cbr 210 ------- 0 0.1 3.0 44 115
- 0.765 0 3 cbr 210 ------- 0 0.1 3.0 44 115
r 0.76543 0 3 cbr 210 ------- 0 0.1 3.0 41 109
+ 0.76625 0 1 cbr 210 ------- 0 0.0 1.0 71 116
- 0.76625 0 1 cbr 210 ------- 0 0.0 1.0 71 116
r 0.76668 0 1 cbr 210 ------- 0 0.0 1.0 68 110
+ 0.76875 0 3 cbr 210 ------- 0 0.1 3.0 45 117
- 0.76875 0 3 cbr 210 ------- 0 0.1 3.0 45 117
r 0.76918 0 3 cbr 210 ------- 0 0.1 3.0 42 111
+ 0.77 0 1 cbr 210 ------- 0 0.0 1.0 72 118
- 0.77 0 1 cbr 210 ------- 0 0.0 1.0 72 118
r 0.77043 0 1 cbr 210 ------- 0 0.0 1.0 69 112
+ 0.7725 0 3 cbr 210 ------- 0 0.1 3.0 46 119
- 0.7725 0 3 cbr 210 ------- 0 0.1 3.0 46 119
r 0.77293 0 3 cbr 210 ------- 0 0.1 3.0 43 113
+ 0.77375 0 1 cbr 210 ------- 0 0.0 1.0 73 120
- 0.77375 0 1 cbr 210 ------- 0 0.0 1.0 73 120
r 0.77418 0 1 cbr 210 ------- 0 0.0 1.0 70 114
+ 0.77625 0 3 cbr 210 ------- 0 0.1 3.0 47 121
- 0.77625 0 3 cbr 210 ------- 0 0.1 3.0 47 121
r 0.77668 0 3 cbr 210 ------- 0 0.1 3.0 44 115
+ 0.7775 0 1 cbr 210 ------- 0 0.0 1.0 74 122
- 0.7775 0 1 cbr 210 ------- 0 0.0 1.0 74 122
r 0.77793 0 1 cbr 210 ------- 0 0.0 1.0 71 116
+ 0.78 0 3 cbr 210 ------- 0 0.1 3.0 48 123
- 0.78 0 3 cbr 210 ------- 0 0.1 3.0 48 123
r 0.78043 0 3 cbr 210 ------- 0 0.1 3.0 45 117
+ 0.78125 0 1 cbr 210 ------- 0 0.0 1.0 75 124
- 0.78125 0 1 cbr 210 ------- 0 0.0 1.0 75 124
r 0.78168 0 1 cbr 210 ------- 0 0.0 1.0 72 118
+ 0.78375 0 3 cbr 210 ------- 0 0.1 3.0 49 125
- 0.78375 0 3 cbr 210 ------- 0 0.1 3.0 49 125
r 0.78418 0 3 cbr 210 ------- 0 0.1 3.0 46 119
+ 0.785 0 1 cbr 210 ------- 0 0.0 1.0 76 126
- 0.785 0 1 cbr 210 ------- 0 0.0 1.0 76 126
r 0.78543 0 1 cbr 210 ------- 0 0.0 1.0 73 120
+ 0.7875 0 3 cbr 210 ------- 0 0.1 3.0 50 127
- 0.7875 0 3 cbr 210 ------- 0 0.1 3.0 50 127
r 0.78793 0 3 cbr 210 ------- 0 0.1 3.0 47 121
+ 0.78875 0 1 cbr 210 ------- 0 0.0 1.0 77 128
- 0.78875 0 1 cbr 210 ------- 0 0.0 1.0 77 128
r 0.78918 0 1 cbr 210 ------- 0 0.0 1.0 74 122
+ 0.79125 0 3 cbr 210 ------- 0 0.1 3.0 51 129
- 0.79125 0 3 cbr 210 ------- 0 0.1 3.0 51 129
r 0.79168 0 3 cbr 210 ------- 0 0.1 3.0 48 123
+ 0.7925 0 1 cbr 210 ------- 0 0.0 1.0 78 130
- 0.7925 0 1 cbr 210 ------- 0 0.0 1.0 78 130
r 0.79293 0 1 cbr 210 ------- 0 0.0 1.0 75 124
+ 0.795 0 3 cbr 210 ------- 0 0.1 3.0 52 131
- 0.795 0 3 cbr 210 ------- 0 0.1 3.0 52 131
r 0.79543 0 3 cbr 210 ------- 0 0.1 3.0 49 125
+ 0.79625 0 1 cbr 210 ------- 0 0.0 1.0 79 132
- 0.79625 0 1 cbr 210 ------- 0 0.0 1.0 79 132
r 0.79668 0 1 cbr 210 ------- 0 0.0 1.0 76 126
+ 0.79875 0 3 cbr 210 ------- 0 0.1 3.0 53 133
- 0.79875 0 3 cbr 210 ------- 0 0.1 3.0 53 133
r 0.79918 0 3 cbr 210 ------- 0 0.1 3.0 50 127
+ 0.8 0 1 cbr 210 ------- 0 0.0 1.0 80 134
- 0.8 0 1 cbr 210 ------- 0 0.0 1.0 80 134
r 0.80043 0 1 cbr 210 ------- 0 0.0 1.0 77 128
+ 0.8025 0 3 cbr 210 ------- 0 0.1 3.0 54 135
- 0.8025 0 3 cbr 210 ------- 0 0.1 3.0 54 135
r 0.80293 0 3 cbr 210 ------- 0 0.1 3.0 51 129
+ 0.80375 0 1 cbr 210 ------- 0 0.0 1.0 81 136
- 0.80375 0 1 cbr 210 ------- 0 0.0 1.0 81 136
r 0.80418 0 1 cbr 210 ------- 0 0.0 1.0 78 130
+ 0.80625 0 3 cbr 210 ------- 0 0.1 3.0 55 137
- 0.80625 0 3 cbr 210 ------- 0 0.1 3.0 55 137
r 0.80668 0 3 cbr 210 ------- 0 0.1 3.0 52 131
+ 0.8075 0 1 cbr 210 ------- 0 0.0 1.0 82 138
- 0.8075 0 1 cbr 210 ------- 0 0.0 1.0 82 138
r 0.80793 0 1 cbr 210 ------- 0 0.0 1.0 79 132
+ 0.81 0 3 cbr 210 ------- 0 0.1 3.0 56 139
- 0.81 0 3 cbr 210 ------- 0 0.1 3.0 56 139
r 0.81043 0 3 cbr 210 ------- 0 0.1 3.0 53 133
+ 0.81125 0 1 cbr 210 ------- 0 0.0 1.0 83 140
- 0.81125 0 1 cbr 210 ------- 0 0.0 1.0 83 140
r 0.81168 0 1 cbr 210 ------- 0 0.0 1.0 80 134
+ 0.81375 0 3 cbr 210 ------- 0 0.1 3.0 57 141
- 0.81375 0 3 cbr 210 ------- 0 0.1 3.0 57 141
r 0.81418 0 3 cbr 210 ------- 0 0.1 3.0 54 135
+ 0.815 0 1 cbr 210 ------- 0 0.0 1.0 84 142
- 0.815 0 1 cbr 210 ------- 0 0.0 1.0 84 142
r 0.81543 0 1 cbr 210 ------- 0 0.0 1.0 81 136
+ 0.8175 0 3 cbr 210 ------- 0 0.1 3.0 58 143
- 0.8175 0 3 cbr 210 ------- 0 0.1 3.0 58 143
r 0.81793 0 3 cbr 210 ------- 0 0.1 3.0 55 137
+ 0.81875 0 1 cbr 210 ------- 0 0.0 1.0 85 144
- 0.81875 0 1 cbr 210 ------- 0 0.0 1.0 85 144
r 0.81918 0 1 cbr 210 ------- 0 0.0 1.0 82 138
+ 0.82125 0 3 cbr 210 ------- 0 0.1 3.0 59 145
- 0.82125 0 3 cbr 210 ------- 0 0.1 3.0 59 145
r 0.82168 0 3 cbr 210 ------- 0 0.1 3.0 56 139
+ 0.8225 0 1 cbr 210 ------- 0 0.0 1.0 86 146
- 0.8225 0 1 cbr 210 ------- 0 0.0 1.0 86 146
r 0.82293 0 1 cbr 210 ------- 0 0.0 1.0 83 140
+ 0.825 0 3 cbr 210 ------- 0 0.1 3.0 60 147
- 0.825 0 3 cbr 210 ------- 0 0.1 3.0 60 147
r 0.82543 0 3 cbr 210 ------- 0 0.1 3.0 57 141
+ 0.82625 0 1 cbr 210 ------- 0 0.0 1.0 87 148
- 0.82625 0 1 cbr 210 ------- 0 0.0 1.0 87 148
r 0.82668 0 1 cbr 210 ------- 0 0.0 1.0 84 142
+ 0.82875 0 3 cbr 210 ------- 0 0.1 3.0 61 149
- 0.82875 0 3 cbr 210 ------- 0 0.1 3.0 61 149
r 0.82918 0 3 cbr 210 ------- 0 0.1 3.0 58 143
+ 0.83 0 1 cbr 210 ------- 0 0.0 1.0 88 150
- 0.83 0 1 cbr 210 ------- 0 0.0 1.0 88 150
r 0.83043 0 1 cbr 210 ------- 0 0.0 1.0 85 144
+ 0.8325 0 3 cbr 210 ------- 0 0.1 3.0 62 151
- 0.8325 0 3 cbr 210 ------- 0 0.1 3.0 62 151
r 0.83293 0 3 cbr 210 ------- 0 0.1 3.0 59 145
+ 0.83375 0 1 cbr 210 ------- 0 0.0 1.0 89 152
- 0.83375 0 1 cbr 210 ------- 0 0.0 1.0 89 152
r 0.83418 0 1 cbr 210 ------- 0 0.0 1.0 86 146
+ 0.83625 0 3 cbr 210 ------- 0 0.1 3.0 63 153
- 0.83625 0 3 cbr 210 ------- 0 0.1 3.0 63 153
r 0.83668 0 3 cbr 210 ------- 0 0.1 3.0 60 147
+ 0.8375 0 1 cbr 210 ------- 0 0.0 1.0 90 154
- 0.8375 0 1 cbr 210 ------- 0 0.0 1.0 90 154
r 0.83793 0 1 cbr 210 ------- 0 0.0 1.0 87 148
+ 0.84 0 3 cbr 210 ------- 0 0.1 3.0 64 155
- 0.84 0 3 cbr 210 ------- 0 0.1 3.0 64 155
r 0.84043 0 3 cbr 210 ------- 0 0.1 3.0 61 149
+ 0.84125 0 1 cbr 210 ------- 0 0.0 1.0 91 156
- 0.84125 0 1 cbr 210 ------- 0 0.0 1.0 91 156
r 0.84168 0 1 cbr 210 ------- 0 0.0 1.0 88 150
+ 0.84375 0 3 cbr 210 ------- 0 0.1 3.0 65 157
- 0.84375 0 3 cbr 210 ------- 0 0.1 3.0 65 157
r 0.84418 0 3 cbr 210 ------- 0 0.1 3.0 62 151
+ 0.845 0 1 cbr 210 ------- 0 0.0 1.0 92 158
- 0.845 0 1 cbr 210 ------- 0 0.0 1.0 92 158
r 0.84543 0 1 cbr 210 ------- 0 0.0 1.0 89 152
+ 0.8475 0 3 cbr 210 ------- 0 0.1 3.0 66 159
- 0.8475 0 3 cbr 210 ------- 0 0.1 3.0 66 159
r 0.84793 0 3 cbr 210 ------- 0 0.1 3.0 63 153
+ 0.84875 0 1 cbr 210 ------- 0 0.0 1.0 93 160
- 0.84875 0 1 cbr 210 ------- 0 0.0 1.0 93 160
r 0.84918 0 1 cbr 210 ------- 0 0.0 1.0 90 154
+ 0.85125 0 3 cbr 210 ------- 0 0.1 3.0 67 161
- 0.85125 0 3 cbr 210 ------- 0 0.1 3.0 67 161
r 0.85168 0 3 cbr 210 ------- 0 0.1 3.0 64 155
+ 0.8525 0 1 cbr 210 ------- 0 0.0 1.0 94 162
- 0.8525 0 1 cbr 210 ------- 0 0.0 1.0 94 162
r 0.85293 0 1 cbr 210 ------- 0 0.0 1.0 91 156
+ 0.855 0 3 cbr 210 ------- 0 0.1 3.0 68 163
- 0.855 0 3 cbr 210 ------- 0 0.1 3.0 68 163
r 0.85543 0 3 cbr 210 ------- 0 0.1 3.0 65 157
+ 0.85625 0 1 cbr 210 ------- 0 0.0 1.0 95 164
- 0.85625 0 1 cbr 210 ------- 0 0.0 1.0 95 164
r 0.85668 0 1 cbr 210 ------- 0 0.0 1.0 92 158
+ 0.85875 0 3 cbr 210 ------- 0 0.1 3.0 69 165
- 0.85875 0 3 cbr 210 ------- 0 0.1 3.0 69 165
r 0.85918 0 3 cbr 210 ------- 0 0.1 3.0 66 159
+ 0.86 0 1 cbr 210 ------- 0 0.0 1.0 96 166
- 0.86 0 1 cbr 210 ------- 0 0.0 1.0 96 166
r 0.86043 0 1 cbr 210 ------- 0 0.0 1.0 93 160
+ 0.8625 0 3 cbr 210 ------- 0 0.1 3.0 70 167
- 0.8625 0 3 cbr 210 ------- 0 0.1 3.0 70 167
r 0.86293 0 3 cbr 210 ------- 0 0.1 3.0 67 161
+ 0.86375 0 1 cbr 210 ------- 0 0.0 1.0 97 168
- 0.86375 0 1 cbr 210 ------- 0 0.0 1.0 97 168
r 0.86418 0 1 cbr 210 ------- 0 0.0 1.0 94 162
+ 0.86625 0 3 cbr 210 ------- 0 0.1 3.0 71 169
- 0.86625 0 3 cbr 210 ------- 0 0.1 3.0 71 169
r 0.86668 0 3 cbr 210 ------- 0 0.1 3.0 68 163
+ 0.8675 0 1 cbr 210 ------- 0 0.0 1.0 98 170
- 0.8675 0 1 cbr 210 ------- 0 0.0 1.0 98 170
r 0.86793 0 1 cbr 210 ------- 0 0.0 1.0 95 164
+ 0.87 0 3 cbr 210 ------- 0 0.1 3.0 72 171
- 0.87 0 3 cbr 210 ------- 0 0.1 3.0 72 171
r 0.87043 0 3 cbr 210 ------- 0 0.1 3.0 69 165
+ 0.87125 0 1 cbr 210 ------- 0 0.0 1.0 99 172
- 0.87125 0 1 cbr 210 ------- 0 0.0 1.0 99 172
r 0.87168 0 1 cbr 210 ------- 0 0.0 1.0 96 166
+ 0.87375 0 3 cbr 210 ------- 0 0.1 3.0 73 173
- 0.87375 0 3 cbr 210 ------- 0 0.1 3.0 73 173
r 0.87418 0 3 cbr 210 ------- 0 0.1 3.0 70 167
+ 0.875 0 1 cbr 210 ------- 0 0.0 1.0 100 174
- 0.875 0 1 cbr 210 ------- 0 0.0 1.0 100 174
r 0.87543 0 1 cbr 210 ------- 0 0.0 1.0 97 168
+ 0.8775 0 3 cbr 210 ------- 0 0.1 3.0 74 175
- 0.8775 0 3 cbr 210 ------- 0 0.1 3.0 74 175
r 0.87793 0 3 cbr 210 ------- 0 0.1 3.0 71 169
+ 0.87875 0 1 cbr 210 ------- 0 0.0 1.0 101 176
- 0.87875 0 1 cbr 210 ------- 0 0.0 1.0 101 176
r 0.87918 0 1 cbr 210 ------- 0 0.0 1.0 98 170
+ 0.88125 0 3 cbr 210 ------- 0 0.1 3.0 75 177
- 0.88125 0 3 cbr 210 ------- 0 0.1 3.0 75 177
r 0.88168 0 3 cbr 210 ------- 0 0.1 3.0 72 171
+ 0.8825 0 1 cbr 210 ------- 0 0.0 1.0 102 178
- 0.8825 0 1 cbr 210 ------- 0 0.0 1.0 102 178
r 0.88293 0 1 cbr 210 ------- 0 0.0 1.0 99 172
+ 0.885 0 3 cbr 210 ------- 0 0.1 3.0 76 179
- 0.885 0 3 cbr 210 ------- 0 0.1 3.0 76 179
r 0.88543 0 3 cbr 210 ------- 0 0.1 3.0 73 173
+ 0.88625 0 1 cbr 210 ------- 0 0.0 1.0 103 180
- 0.88625 0 1 cbr 210 ------- 0 0.0 1.0 103 180
r 0.88668 0 1 cbr 210 ------- 0 0.0 1.0 100 174
+ 0.88875 0 3 cbr 210 ------- 0 0.1 3.0 77 181
- 0.88875 0 3 cbr 210 ------- 0 0.1 3.0 77 181
r 0.88918 0 3 cbr 210 ------- 0 0.1 3.0 74 175
+ 0.89 0 1 cbr 210 ------- 0 0.0 1.0 104 182
- 0.89 0 1 cbr 210 ------- 0 0.0 1.0 104 182
r 0.89043 0 1 cbr 210 ------- 0 0.0 1.0 101 176
+ 0.8925 0 3 cbr 210 ------- 0 0.1 3.0 78 183
- 0.8925 0 3 cbr 210 ------- 0 0.1 3.0 78 183
r 0.89293 0 3 cbr 210 ------- 0 0.1 3.0 75 177
+ 0.89375 0 1 cbr 210 ------- 0 0.0 1.0 105 184
- 0.89375 0 1 cbr 210 ------- 0 0.0 1.0 105 184
r 0.89418 0 1 cbr 210 ------- 0 0.0 1.0 102 178
+ 0.89625 0 3 cbr 210 ------- 0 0.1 3.0 79 185
- 0.89625 0 3 cbr 210 ------- 0 0.1 3.0 79 185
r 0.89668 0 3 cbr 210 ------- 0 0.1 3.0 76 179
+ 0.8975 0 1 cbr 210 ------- 0 0.0 1.0 106 186
- 0.8975 0 1 cbr 210 ------- 0 0.0 1.0 106 186
r 0.89793 0 1 cbr 210 ------- 0 0.0 1.0 103 180
+ 0.9 0 3 cbr 210 ------- 0 0.1 3.0 80 187
- 0.9 0 3 cbr 210 ------- 0 0.1 3.0 80 187
r 0.90043 0 3 cbr 210 ------- 0 0.1 3.0 77 181
+ 0.90125 0 1 cbr 210 ------- 0 0.0 1.0 107 188
- 0.90125 0 1 cbr 210 ------- 0 0.0 1.0 107 188
r 0.90168 0 1 cbr 210 ------- 0 0.0 1.0 104 182
+ 0.90375 0 3 cbr 210 ------- 0 0.1 3.0 81 189
- 0.90375 0 3 cbr 210 ------- 0 0.1 3.0 81 189
r 0.90418 0 3 cbr 210 ------- 0 0.1 3.0 78 183
+ 0.905 0 1 cbr 210 ------- 0 0.0 1.0 108 190
- 0.905 0 1 cbr 210 ------- 0 0.0 1.0 108 190
r 0.90543 0 1 cbr 210 ------- 0 0.0 1.0 105 184
+ 0.9075 0 3 cbr 210 ------- 0 0.1 3.0 82 191
- 0.9075 0 3 cbr 210 ------- 0 0.1 3.0 82 191
r 0.90793 0 3 cbr 210 ------- 0 0.1 3.0 79 185
+ 0.90875 0 1 cbr 210 ------- 0 0.0 1.0 109 192
- 0.90875 0 1 cbr 210 ------- 0 0.0 1.0 109 192
r 0.90918 0 1 cbr 210 ------- 0 0.0 1.0 106 186
+ 0.91125 0 3 cbr 210 ------- 0 0.1 3.0 83 193
- 0.91125 0 3 cbr 210 ------- 0 0.1 3.0 83 193
r 0.91168 0 3 cbr 210 ------- 0 0.1 3.0 80 187
+ 0.9125 0 1 cbr 210 ------- 0 0.0 1.0 110 194
- 0.9125 0 1 cbr 210 ------- 0 0.0 1.0 110 194
r 0.91293 0 1 cbr 210 ------- 0 0.0 1.0 107 188
+ 0.915 0 3 cbr 210 ------- 0 0.1 3.0 84 195
- 0.915 0 3 cbr 210 ------- 0 0.1 3.0 84 195
r 0.91543 0 3 cbr 210 ------- 0 0.1 3.0 81 189
+ 0.91625 0 1 cbr 210 ------- 0 0.0 1.0 111 196
- 0.91625 0 1 cbr 210 ------- 0 0.0 1.0 111 196
r 0.91668 0 1 cbr 210 ------- 0 0.0 1.0 108 190
+ 0.91875 0 3 cbr 210 ------- 0 0.1 3.0 85 197
- 0.91875 0 3 cbr 210 ------- 0 0.1 3.0 85 197
r 0.91918 0 3 cbr 210 ------- 0 0.1 3.0 82 191
+ 0.92 0 1 cbr 210 ------- 0 0.0 1.0 112 198
- 0.92 0 1 cbr 210 ------- 0 0.0 1.0 112 198
r 0.92043 0 1 cbr 210 ------- 0 0.0 1.0 109 192
+ 0.9225 0 3 cbr 210 ------- 0 0.1 3.0 86 199
- 0.9225 0 3 cbr 210 ------- 0 0.1 3.0 86 199
r 0.92293 0 3 cbr 210 ------- 0 0.1 3.0 83 193
+ 0.92375 0 1 cbr 210 ------- 0 0.0 1.0 113 200
- 0.92375 0 1 cbr 210 ------- 0 0.0 1.0 113 200
r 0.92418 0 1 cbr 210 ------- 0 0.0 1.0 110 194
+ 0.92625 0 3 cbr 210 ------- 0 0.1 3.0 87 201
- 0.92625 0 3 cbr 210 ------- 0 0.1 3.0 87 201
r 0.92668 0 3 cbr 210 ------- 0 0.1 3.0 84 195
+ 0.9275 0 1 cbr 210 ------- 0 0.0 1.0 114 202
- 0.9275 0 1 cbr 210 ------- 0 0.0 1.0 114 202
r 0.92793 0 1 cbr 210 ------- 0 0.0 1.0 111 196
+ 0.93 0 3 cbr 210 ------- 0 0.1 3.0 88 203
- 0.93 0 3 cbr 210 ------- 0 0.1 3.0 88 203
r 0.93043 0 3 cbr 210 ------- 0 0.1 3.0 85 197
+ 0.93125 0 1 cbr 210 ------- 0 0.0 1.0 115 204
- 0.93125 0 1 cbr 210 ------- 0 0.0 1.0 115 204
r 0.93168 0 1 cbr 210 ------- 0 0.0 1.0 112 198
+ 0.93375 0 3 cbr 210 ------- 0 0.1 3.0 89 205
- 0.93375 0 3 cbr 210 ------- 0 0.1 3.0 89 205
r 0.93418 0 3 cbr 210 ------- 0 0.1 3.0 86 199
+ 0.935 0 1 cbr 210 ------- 0 0.0 1.0 116 206
- 0.935 0 1 cbr 210 ------- 0 0.0 1.0 116 206
r 0.93543 0 1 cbr 210 ------- 0 0.0 1.0 113 200
+ 0.9375 0 3 cbr 210 ------- 0 0.1 3.0 90 207
- 0.9375 0 3 cbr 210 ------- 0 0.1 3.0 90 207
r 0.93793 0 3 cbr 210 ------- 0 0.1 3.0 87 201
+ 0.93875 0 1 cbr 210 ------- 0 0.0 1.0 117 208
- 0.93875 0 1 cbr 210 ------- 0 0.0 1.0 117 208
r 0.93918 0 1 cbr 210 ------- 0 0.0 1.0 114 202
+ 0.94125 0 3 cbr 210 ------- 0 0.1 3.0 91 209
- 0.94125 0 3 cbr 210 ------- 0 0.1 3.0 91 209
r 0.94168 0 3 cbr 210 ------- 0 0.1 3.0 88 203
+ 0.9425 0 1 cbr 210 ------- 0 0.0 1.0 118 210
- 0.9425 0 1 cbr 210 ------- 0 0.0 1.0 118 210
r 0.94293 0 1 cbr 210 ------- 0 0.0 1.0 115 204
+ 0.945 0 3 cbr 210 ------- 0 0.1 3.0 92 211
- 0.945 0 3 cbr 210 ------- 0 0.1 3.0 92 211
r 0.94543 0 3 cbr 210 ------- 0 0.1 3.0 89 205
+ 0.94625 0 1 cbr 210 ------- 0 0.0 1.0 119 212
- 0.94625 0 1 cbr 210 ------- 0 0.0 1.0 119 212
r 0.94668 0 1 cbr 210 ------- 0 0.0 1.0 116 206
+ 0.94875 0 3 cbr 210 ------- 0 0.1 3.0 93 213
- 0.94875 0 3 cbr 210 ------- 0 0.1 3.0 93 213
r 0.94918 0 3 cbr 210 ------- 0 0.1 3.0 90 207
+ 0.95 0 1 cbr 210 ------- 0 0.0 1.0 120 214
- 0.95 0 1 cbr 210 ------- 0 0.0 1.0 120 214
r 0.95043 0 1 cbr 210 ------- 0 0.0 1.0 117 208
+ 0.9525 0 3 cbr 210 ------- 0 0.1 3.0 94 215
- 0.9525 0 3 cbr 210 ------- 0 0.1 3.0 94 215
r 0.95293 0 3 cbr 210 ------- 0 0.1 3.0 91 209
+ 0.95375 0 1 cbr 210 ------- 0 0.0 1.0 121 216
- 0.95375 0 1 cbr 210 ------- 0 0.0 1.0 121 216
r 0.95418 0 1 cbr 210 ------- 0 0.0 1.0 118 210
+ 0.95625 0 3 cbr 210 ------- 0 0.1 3.0 95 217
- 0.95625 0 3 cbr 210 ------- 0 0.1 3.0 95 217
r 0.95668 0 3 cbr 210 ------- 0 0.1 3.0 92 211
+ 0.9575 0 1 cbr 210 ------- 0 0.0 1.0 122 218
- 0.9575 0 1 cbr 210 ------- 0 0.0 1.0 122 218
r 0.95793 0 1 cbr 210 ------- 0 0.0 1.0 119 212
+ 0.96 0 3 cbr 210 ------- 0 0.1 3.0 96 219
- 0.96 0 3 cbr 210 ------- 0 0.1 3.0 96 219