V -t * -v 1.0a5 -a 0
A -t * -n 1 -p 0 -o 0x7fffffff -c 30 -a 1
A -t * -h 1 -m 1073741823 -s 0
c -t * -i 0 -n blue
c -t * -i 1 -n red
n -t * -a 4 -s 4 -S UP -v circle -c black -i black
n -t * -a 0 -s 0 -S UP -v circle -c black -i black
n -t * -a 1 -s 1 -S UP -v circle -c black -i black
n -t * -a 2 -s 2 -S UP -v circle -c black -i black
n -t * -a 3 -s 3 -S UP -v circle -c black -i black
l -t * -s 0 -d 1 -S UP -r 1000000 -D 0.01 -c black -o up
l -t * -s 0 -d 2 -S UP -r 1000000 -D 0.01 -c black -o down
l -t * -s 0 -d 3 -S UP -r 1000000 -D 0.01 -c black -o left
l -t * -s 0 -d 4 -S UP -r 1000000 -D 0.01 -c black -o right
q -t * -s 4 -d 0 -a 0.5
q -t * -s 0 -d 4 -a 0.5
+ -t 0.5 -s 0 -d 1 -p cbr -e 210 -c 0 -i 0 -a 0 -x {0.0 1.0 0 ------- null}
- -t 0.5 -s 0 -d 1 -p cbr -e 210 -c 0 -i 0 -a 0 -x {0.0 1.0 0 ------- null}
h -t 0.5 -s 0 -d 1 -p cbr -e 210 -c 0 -i 0 -a 0 -x {0.0 1.0 -1 ------- null}
+ -t 0.50375 -s 0 -d 1 -p cbr -e 210 -c 0 -i 1 -a 0 -x {0.0 1.0 1 ------- null}
- -t 0.50375 -s 0 -d 1 -p cbr -e 210 -c 0 -i 1 -a 0 -x {0.0 1.0 1 ------- null}
h -t 0.50375 -s 0 -d 1 -p cbr -e 210 -c 0 -i 1 -a 0 -x {0.0 1.0 -1 ------- null}
+ -t 0.5075 -s 0 -d 1 -p cbr -e 210 -c 0 -i 2 -a 0 -x {0.0 1.0 2 ------- null}
- -t 0.5075 -s 0 -d 1 -p cbr -e 210 -c 0 -i 2 -a 0 -x {0.0 1.0 2 ------- null}
h -t 0.5075 -s 0 -d 1 -p cbr -e 210 -c 0 -i 2 -a 0 -x {0.0 1.0 -1 ------- null}
+ -t 0.51125 -s 0 -d 1 -p cbr -e 210 -c 0 -i 3 -a 0 -x {0.0 1.0 3 ------- null}
- -t 0.51125 -s 0 -d 1 -p cbr -e 210 -c 0 -i 3 -a 0 -x {0.0 1.0 3 ------- null}
h -t 0.51125 -s 0 -d 1 -p cbr -e 210 -c 0 -i 3 -a 0 -x {0.0 1.0 -1 ------- null}
r -t 0.51168 -s 0 -d 1 -p cbr -e 210 -c 0 -i 0 -a 0 -x {0.0 1.0 0 ------- null}
+ -t 0.515 -s 0 -d 1 -p cbr -e 210 -c 0 -i 4 -a 0 -x {0.0 1.0 4 ------- null}
- -t 0.515 -s 0 -d 1 -p cbr -e 210 -c 0 -i 4 -a 0 -x {0.0 1.0 4 ------- null}
h -t 0.515 -s 0 -d 1 -p cbr -e 210 -c 0 -i 4 -a 0 -x {0.0 1.0 -1 ------- null}
r -t 0.51543 -s 0 -d 1 -p cbr -e 210 -c 0 -i 1 -a 0 -x {0.0 1.0 1 ------- null}
+ -t 0.51875 -s 0 -d 1 -p cbr -e 210 -c 0 -i 5 -a 0 -x {0.0 1.0 5 ------- null}
- -t 0.51875 -s 0 -d 1 -p cbr -e 210 -c 0 -i 5 -a 0 -x {0.0 1.0 5 ------- null}
h -t 0.51875 -s 0 -d 1 -p cbr -e 210 -c 0 -i 5 -a 0 -x {0.0 1.0 -1 ------- null}
r -t 0.51918 -s 0 -d 1 -p cbr -e 210 -c 0 -i 2 -a 0 -x {0.0 1.0 2 ------- null}
+ -t 0.5225 -s 0 -d 1 -p cbr -e 210 -c 0 -i 6 -a 0 -x {0.0 1.0 6 ------- null}
- -t 0.5225 -s 0 -d 1 -p cbr -e 210 -c 0 -i 6 -a 0 -x {0.0 1.0 6 ------- null}
h -t 0.5225 -s 0 -d 1 -p cbr -e 210 -c 0 -i 6 -a 0 -x {0.0 1.0 -1 ------- null}
r -t 0.52293 -s 0 -d 1 -p cbr -e 210 -c 0 -i 3 -a 0 -x {0.0 1.0 3 ------- null}
+ -t 0.52625 -s 0 -d 1 -p cbr -e 210 -c 0 -i 7 -a 0 -x {0.0 1.0 7 ------- null}
- -t 0.52625 -s 0 -d 1 -p cbr -e 210 -c 0 -i 7 -a 0 -x {0.0 1.0 7 ------- null}
h -t 0.52625 -s 0 -d 1 -p cbr -e 210 -c 0 -i 7 -a 0 -x {0.0 1.0 -1 ------- null}
r -t 0.52668 -s 0 -d 1 -p cbr -e 210 -c 0 -i 4 -a 0 -x {0.0 1.0 4 ------- null}
+ -t 0.53 -s 0 -d 1 -p cbr -e 210 -c 0 -i 8 -a 0 -x {0.0 1.0 8 ------- null}
- -t 0.53 -s 0 -d 1 -p cbr -e 210 -c 0 -i 8 -a 0 -x {0.0 1.0 8 ------- null}
h -t 0.53 -s 0 -d 1 -p cbr -e 210 -c 0 -i 8 -a 0 -x {0.0 1.0 -1 ------- null}
r -t 0.53043 -s 0 -d 1 -p cbr -e 210 -c 0 -i 5 -a 0 -x {0.0 1.0 5 ------- null}
+ -t 0.53375 -s 0 -d 1 -p cbr -e 210 -c 0 -i 9 -a 0 -x {0.0 1.0 9 ------- null}
- -t 0.53375 -s 0 -d 1 -p cbr -e 210 -c 0 -i 9 -a 0 -x {0.0 1.0 9 ------- null}
h -t 0.53375 -s 0 -d 1 -p cbr -e 210 -c 0 -i 9 -a 0 -x {0.0 1.0 -1 ------- null}
r -t 0.53418 -s 0 -d 1 -p cbr -e 210 -c 0 -i 6 -a 0 -x {0.0 1.0 6 ------- null}
+ -t 0.5375 -s 0 -d 1 -p cbr -e 210 -c 0 -i 10 -a 0 -x {0.0 1.0 10 ------- null}
- -t 0.5375 -s 0 -d 1 -p cbr -e 210 -c 0 -i 10 -a 0 -x {0.0 1.0 10 ------- null}
h -t 0.5375 -s 0 -d 1 -p cbr -e 210 -c 0 -i 10 -a 0 -x {0.0 1.0 -1 ------- null}
r -t 0.53793 -s 0 -d 1 -p cbr -e 210 -c 0 -i 7 -a 0 -x {0.0 1.0 7 ------- null}
+ -t 0.54125 -s 0 -d 1 -p cbr -e 210 -c 0 -i 11 -a 0 -x {0.0 1.0 11 ------- null}
- -t 0.54125 -s 0 -d 1 -p cbr -e 210 -c 0 -i 11 -a 0 -x {0.0 1.0 11 ------- null}
h -t 0.54125 -s 0 -d 1 -p cbr -e 210 -c 0 -i 11 -a 0 -x {0.0 1.0 -1 ------- null}
r -t 0.54168 -s 0 -d 1 -p cbr -e 210 -c 0 -i 8 -a 0 -x {0.0 1.0 8 ------- null}
+ -t 0.545 -s 0 -d 1 -p cbr -e 210 -c 0 -i 12 -a 0 -x {0.0 1.0 12 ------- null}
- -t 0.545 -s 0 -d 1 -p cbr -e 210 -c 0 -i 12 -a 0 -x {0.0 1.0 12 ------- null}
h -t 0.545 -s 0 -d 1 -p cbr -e 210 -c 0 -i 12 -a 0 -x {0.0 1.0 -1 ------- null}
r -t 0.54543 -s 0 -d 1 -p cbr -e 210 -c 0 -i 9 -a 0 -x {0.0 1.0 9 ------- null}
+ -t 0.54875 -s 0 -d 1 -p cbr -e 210 -c 0 -i 13 -a 0 -x {0.0 1.0 13 ------- null}
- -t 0.54875 -s 0 -d 1 -p cbr -e 210 -c 0 -i 13 -a 0 -x {0.0 1.0 13 ------- null}
h -t 0.54875 -s 0 -d 1 -p cbr -e 210 -c 0 -i 13 -a 0 -x {0.0 1.0 -1 ------- null}
r -t 0.54918 -s 0 -d 1 -p cbr -e 210 -c 0 -i 10 -a 0 -x {0.0 1.0 10 ------- null}
+ -t 0.5525 -s 0 -d 1 -p cbr -e 210 -c 0 -i 14 -a 0 -x {0.0 1.0 14 ------- null}
- -t 0.5525 -s 0 -d 1 -p cbr -e 210 -c 0 -i 14 -a 0 -x {0.0 1.0 14 ------- null}
h -t 0.5525 -s 0 -d 1 -p cbr -e 210 -c 0 -i 14 -a 0 -x {0.0 1.0 -1 ------- null}
r -t 0.55293 -s 0 -d 1 -p cbr -e 210 -c 0 -i 11 -a 0 -x {0.0 1.0 11 ------- null}
+ -t 0.55625 -s 0 -d 1 -p cbr -e 210 -c 0 -i 15 -a 0 -x {0.0 1.0 15 ------- null}
- -t 0.55625 -s 0 -d 1 -p cbr -e 210 -c 0 -i 15 -a 0 -x {0.0 1.0 15 ------- null}
h -t 0.55625 -s 0 -d 1 -p cbr -e 210 -c 0 -i 15 -a 0 -x {0.0 1.0 -1 ------- null}
r -t 0.55668 -s 0 -d 1 -p cbr -e 210 -c 0 -i 12 -a 0 -x {0.0 1.0 12 ------- null}
+ -t 0.56 -s 0 -d 1 -p cbr -e 210 -c 0 -i 16 -a 0 -x {0.0 1.0 16 ------- null}
- -t 0.56 -s 0 -d 1 -p cbr -e 210 -c 0 -i 16 -a 0 -x {0.0 1.0 16 ------- null}
h -t 0.56 -s 0 -d 1 -p cbr -e 210 -c 0 -i 16 -a 0 -x {0.0 1.0 -1 ------- null}
r -t 0.56043 -s 0 -d 1 -p cbr -e 210 -c 0 -i 13 -a 0 -x {0.0 1.0 13 ------- null}
+ -t 0.563750000000001 -s 0 -d 1 -p cbr -e 210 -c 0 -i 17 -a 0 -x {0.0 1.0 17 ------- null}
- -t 0.563750000000001 -s 0 -d 1 -p cbr -e 210 -c 0 -i 17 -a 0 -x {0.0 1.0 17 ------- null}
h -t 0.563750000000001 -s 0 -d 1 -p cbr -e 210 -c 0 -i 17 -a 0 -x {0.0 1.0 -1 ------- null}
r -t 0.56418 -s 0 -d 1 -p cbr -e 210 -c 0 -i 14 -a 0 -x {0.0 1.0 14 ------- null}
+ -t 0.567500000000001 -s 0 -d 1 -p cbr -e 210 -c 0 -i 18 -a 0 -x {0.0 1.0 18 ------- null}
- -t 0.567500000000001 -s 0 -d 1 -p cbr -e 210 -c 0 -i 18 -a 0 -x {0.0 1.0 18 ------- null}
h -t 0.567500000000001 -s 0 -d 1 -p cbr -e 210 -c 0 -i 18 -a 0 -x {0.0 1.0 -1 ------- null}
r -t 0.56793 -s 0 -d 1 -p cbr -e 210 -c 0 -i 15 -a 0 -x {0.0 1.0 15 ------- null}
+ -t 0.571250000000001 -s 0 -d 1 -p cbr -e 210 -c 0 -i 19 -a 0 -x {0.0 1.0 19 ------- null}
- -t 0.571250000000001 -s 0 -d 1 -p cbr -e 210 -c 0 -i 19 -a 0 -x {0.0 1.0 19 ------- null}
h -t 0.571250000000001 -s 0 -d 1 -p cbr -e 210 -c 0 -i 19 -a 0 -x {0.0 1.0 -1 ------- null}
r -t 0.571680000000001 -s 0 -d 1 -p cbr -e 210 -c 0 -i 16 -a 0 -x {0.0 1.0 16 ------- null}
+ -t 0.575000000000001 -s 0 -d 1 -p cbr -e 210 -c 0 -i 20 -a 0 -x {0.0 1.0 20 ------- null}
- -t 0.575000000000001 -s 0 -d 1 -p cbr -e 210 -c 0 -i 20 -a 0 -x {0.0 1.0 20 ------- null}
h -t 0.575000000000001 -s 0 -d 1 -p cbr -e 210 -c 0 -i 20 -a 0 -x {0.0 1.0 -1 ------- null}
r -t 0.575430000000001 -s 0 -d 1 -p cbr -e 210 -c 0 -i 17 -a 0 -x {0.0 1.0 17 ------- null}
+ -t 0.578750000000001 -s 0 -d 1 -p cbr -e 210 -c 0 -i 21 -a 0 -x {0.0 1.0 21 ------- null}
- -t 0.578750000000001 -s 0 -d 1 -p cbr -e 210 -c 0 -i 21 -a 0 -x {0.0 1.0 21 ------- null}
h -t 0.578750000000001 -s 0 -d 1 -p cbr -e 210 -c 0 -i 21 -a 0 -x {0.0 1.0 -1 ------- null}
r -t 0.579180000000001 -s 0 -d 1 -p cbr -e 210 -c 0 -i 18 -a 0 -x {0.0 1.0 18 ------- null}
+ -t 0.582500000000001 -s 0 -d 1 -p cbr -e 210 -c 0 -i 22 -a 0 -x {0.0 1.0 22 ------- null}
- -t 0.582500000000001 -s 0 -d 1 -p cbr -e 210 -c 0 -i 22 -a 0 -x {0.0 1.0 22 ------- null}
h -t 0.582500000000001 -s 0 -d 1 -p cbr -e 210 -c 0 -i 22 -a 0 -x {0.0 1.0 -1 ------- null}
r -t 0.582930000000001 -s 0 -d 1 -p cbr -e 210 -c 0 -i 19 -a 0 -x {0.0 1.0 19 ------- null}
+ -t 0.586250000000001 -s 0 -d 1 -p cbr -e 210 -c 0 -i 23 -a 0 -x {0.0 1.0 23 ------- null}
- -t 0.586250000000001 -s 0 -d 1 -p cbr -e 210 -c 0 -i 23 -a 0 -x {0.0 1.0 23 ------- null}
h -t 0.586250000000001 -s 0 -d 1 -p cbr -e 210 -c 0 -i 23 -a 0 -x {0.0 1.0 -1 ------- null}
r -t 0.586680000000001 -s 0 -d 1 -p cbr -e 210 -c 0 -i 20 -a 0 -x {0.0 1.0 20 ------- null}
+ -t 0.590000000000001 -s 0 -d 1 -p cbr -e 210 -c 0 -i 24 -a 0 -x {0.0 1.0 24 ------- null}
- -t 0.590000000000001 -s 0 -d 1 -p cbr -e 210 -c 0 -i 24 -a 0 -x {0.0 1.0 24 ------- null}
h -t 0.590000000000001 -s 0 -d 1 -p cbr -e 210 -c 0 -i 24 -a 0 -x {0.0 1.0 -1 ------- null}
r -t 0.590430000000001 -s 0 -d 1 -p cbr -e 210 -c 0 -i 21 -a 0 -x {0.0 1.0 21 ------- null}
+ -t 0.593750000000001 -s 0 -d 1 -p cbr -e 210 -c 0 -i 25 -a 0 -x {0.0 1.0 25 ------- null}
- -t 0.593750000000001 -s 0 -d 1 -p cbr -e 210 -c 0 -i 25 -a 0 -x {0.0 1.0 25 ------- null}
h -t 0.593750000000001 -s 0 -d 1 -p cbr -e 210 -c 0 -i 25 -a 0 -x {0.0 1.0 -1 ------- null}
r -t 0.594180000000001 -s 0 -d 1 -p cbr -e 210 -c 0 -i 22 -a 0 -x {0.0 1.0 22 ------- null}
+ -t 0.597500000000001 -s 0 -d 1 -p cbr -e 210 -c 0 -i 26 -a 0 -x {0.0 1.0 26 ------- null}
- -t 0.597500000000001 -s 0 -d 1 -p cbr -e 210 -c 0 -i 26 -a 0 -x {0.0 1.0 26 ------- null}
h -t 0.597500000000001 -s 0 -d 1 -p cbr -e 210 -c 0 -i 26 -a 0 -x {0.0 1.0 -1 ------- null}
r -t 0.597930000000001 -s 0 -d 1 -p cbr -e 210 -c 0 -i 23 -a 0 -x {0.0 1.0 23 ------- null}
+ -t 0.6 -s 0 -d 3 -p cbr -e 210 -c 0 -i 27 -a 0 -x {0.1 3.0 0 ------- null}
- -t 0.6 -s 0 -d 3 -p cbr -e 210 -c 0 -i 27 -a 0 -x {0.1 3.0 0 ------- null}
h -t 0.6 -s 0 -d 3 -p cbr -e 210 -c 0 -i 27 -a 0 -x {0.1 3.0 -1 ------- null}
+ -t 0.601250000000001 -s 0 -d 1 -p cbr -e 210 -c 0 -i 28 -a 0 -x {0.0 1.0 27 ------- null}
- -t 0.601250000000001 -s 0 -d 1 -p cbr -e 210 -c 0 -i 28 -a 0 -x {0.0 1.0 27 ------- null}
h -t 0.601250000000001 -s 0 -d 1 -p cbr -e 210 -c 0 -i 28 -a 0 -x {0.0 1.0 -1 ------- null}
r -t 0.601680000000001 -s 0 -d 1 -p cbr -e 210 -c 0 -i 24 -a 0 -x {0.0 1.0 24 ------- null}
+ -t 0.60375 -s 0 -d 3 -p cbr -e 210 -c 0 -i 29 -a 0 -x {0.1 3.0 1 ------- null}
- -t 0.60375 -s 0 -d 3 -p cbr -e 210 -c 0 -i 29 -a 0 -x {0.1 3.0 1 ------- null}
h -t 0.60375 -s 0 -d 3 -p cbr -e 210 -c 0 -i 29 -a 0 -x {0.1 3.0 -1 ------- null}
+ -t 0.605000000000001 -s 0 -d 1 -p cbr -e 210 -c 0 -i 30 -a 0 -x {0.0 1.0 28 ------- null}
- -t 0.605000000000001 -s 0 -d 1 -p cbr -e 210 -c 0 -i 30 -a 0 -x {0.0 1.0 28 ------- null}
h -t 0.605000000000001 -s 0 -d 1 -p cbr -e 210 -c 0 -i 30 -a 0 -x {0.0 1.0 -1 ------- null}
r -t 0.605430000000001 -s 0 -d 1 -p cbr -e 210 -c 0 -i 25 -a 0 -x {0.0 1.0 25 ------- null}
+ -t 0.6075 -s 0 -d 3 -p cbr -e 210 -c 0 -i 31 -a 0 -x {0.1 3.0 2 ------- null}
- -t 0.6075 -s 0 -d 3 -p cbr -e 210 -c 0 -i 31 -a 0 -x {0.1 3.0 2 ------- null}
h -t 0.6075 -s 0 -d 3 -p cbr -e 210 -c 0 -i 31 -a 0 -x {0.1 3.0 -1 ------- null}
+ -t 0.608750000000001 -s 0 -d 1 -p cbr -e 210 -c 0 -i 32 -a 0 -x {0.0 1.0 29 ------- null}
- -t 0.608750000000001 -s 0 -d 1 -p cbr -e 210 -c 0 -i 32 -a 0 -x {0.0 1.0 29 ------- null}
h -t 0.608750000000001 -s 0 -d 1 -p cbr -e 210 -c 0 -i 32 -a 0 -x {0.0 1.0 -1 ------- null}
r -t 0.609180000000001 -s 0 -d 1 -p cbr -e 210 -c 0 -i 26 -a 0 -x {0.0 1.0 26 ------- null}
+ -t 0.61125 -s 0 -d 3 -p cbr -e 210 -c 0 -i 33 -a 0 -x {0.1 3.0 3 ------- null}
- -t 0.61125 -s 0 -d 3 -p cbr -e 210 -c 0 -i 33 -a 0 -x {0.1 3.0 3 ------- null}
h -t 0.61125 -s 0 -d 3 -p cbr -e 210 -c 0 -i 33 -a 0 -x {0.1 3.0 -1 ------- null}
r -t 0.61168 -s 0 -d 3 -p cbr -e 210 -c 0 -i 27 -a 0 -x {0.1 3.0 0 ------- null}
+ -t 0.612500000000001 -s 0 -d 1 -p cbr -e 210 -c 0 -i 34 -a 0 -x {0.0 1.0 30 ------- null}
- -t 0.612500000000001 -s 0 -d 1 -p cbr -e 210 -c 0 -i 34 -a 0 -x {0.0 1.0 30 ------- null}
h -t 0.612500000000001 -s 0 -d 1 -p cbr -e 210 -c 0 -i 34 -a 0 -x {0.0 1.0 -1 ------- null}
r -t 0.612930000000001 -s 0 -d 1 -p cbr -e 210 -c 0 -i 28 -a 0 -x {0.0 1.0 27 ------- null}
+ -t 0.615 -s 0 -d 3 -p cbr -e 210 -c 0 -i 35 -a 0 -x {0.1 3.0 4 ------- null}
- -t 0.615 -s 0 -d 3 -p cbr -e 210 -c 0 -i 35 -a 0 -x {0.1 3.0 4 ------- null}
h -t 0.615 -s 0 -d 3 -p cbr -e 210 -c 0 -i 35 -a 0 -x {0.1 3.0 -1 ------- null}
r -t 0.61543 -s 0 -d 3 -p cbr -e 210 -c 0 -i 29 -a 0 -x {0.1 3.0 1 ------- null}
+ -t 0.616250000000001 -s 0 -d 1 -p cbr -e 210 -c 0 -i 36 -a 0 -x {0.0 1.0 31 ------- null}
- -t 0.616250000000001 -s 0 -d 1 -p cbr -e 210 -c 0 -i 36 -a 0 -x {0.0 1.0 31 ------- null}
h -t 0.616250000000001 -s 0 -d 1 -p cbr -e 210 -c 0 -i 36 -a 0 -x {0.0 1.0 -1 ------- null}
r -t 0.616680000000001 -s 0 -d 1 -p cbr -e 210 -c 0 -i 30 -a 0 -x {0.0 1.0 28 ------- null}
+ -t 0.61875 -s 0 -d 3 -p cbr -e 210 -c 0 -i 37 -a 0 -x {0.1 3.0 5 ------- null}
- -t 0.61875 -s 0 -d 3 -p cbr -e 210 -c 0 -i 37 -a 0 -x {0.1 3.0 5 ------- null}
h -t 0.61875 -s 0 -d 3 -p cbr -e 210 -c 0 -i 37 -a 0 -x {0.1 3.0 -1 ------- null}
r -t 0.61918 -s 0 -d 3 -p cbr -e 210 -c 0 -i 31 -a 0 -x {0.1 3.0 2 ------- null}
+ -t 0.620000000000001 -s 0 -d 1 -p cbr -e 210 -c 0 -i 38 -a 0 -x {0.0 1.0 32 ------- null}
- -t 0.620000000000001 -s 0 -d 1 -p cbr -e 210 -c 0 -i 38 -a 0 -x {0.0 1.0 32 ------- null}
h -t 0.620000000000001 -s 0 -d 1 -p cbr -e 210 -c 0 -i 38 -a 0 -x {0.0 1.0 -1 ------- null}
r -t 0.620430000000001 -s 0 -d 1 -p cbr -e 210 -c 0 -i 32 -a 0 -x {0.0 1.0 29 ------- null}
+ -t 0.6225 -s 0 -d 3 -p cbr -e 210 -c 0 -i 39 -a 0 -x {0.1 3.0 6 ------- null}
- -t 0.6225 -s 0 -d 3 -p cbr -e 210 -c 0 -i 39 -a 0 -x {0.1 3.0 6 ------- null}
h -t 0.6225 -s 0 -d 3 -p cbr -e 210 -c 0 -i 39 -a 0 -x {0.1 3.0 -1 ------- null}
r -t 0.62293 -s 0 -d 3 -p cbr -e 210 -c 0 -i 33 -a 0 -x {0.1 3.0 3 ------- null}
+ -t 0.623750000000001 -s 0 -d 1 -p cbr -e 210 -c 0 -i 40 -a 0 -x {0.0 1.0 33 ------- null}
- -t 0.623750000000001 -s 0 -d 1 -p cbr -e 210 -c 0 -i 40 -a 0 -x {0.0 1.0 33 ------- null}
h -t 0.623750000000001 -s 0 -d 1 -p cbr -e 210 -c 0 -i 40 -a 0 -x {0.0 1.0 -1 ------- null}
r -t 0.624180000000001 -s 0 -d 1 -p cbr -e 210 -c 0 -i 34 -a 0 -x {0.0 1.0 30 ------- null}
+ -t 0.62625 -s 0 -d 3 -p cbr -e 210 -c 0 -i 41 -a 0 -x {0.1 3.0 7 ------- null}
- -t 0.62625 -s 0 -d 3 -p cbr -e 210 -c 0 -i 41 -a 0 -x {0.1 3.0 7 ------- null}
h -t 0.62625 -s 0 -d 3 -p cbr -e 210 -c 0 -i 41 -a 0 -x {0.1 3.0 -1 ------- null}
r -t 0.62668 -s 0 -d 3 -p cbr -e 210 -c 0 -i 35 -a 0 -x {0.1 3.0 4 ------- null}
+ -t 0.627500000000001 -s 0 -d 1 -p cbr -e 210 -c 0 -i 42 -a 0 -x {0.0 1.0 34 ------- null}
- -t 0.627500000000001 -s 0 -d 1 -p cbr -e 210 -c 0 -i 42 -a 0 -x {0.0 1.0 34 ------- null}
h -t 0.627500000000001 -s 0 -d 1 -p cbr -e 210 -c 0 -i 42 -a 0 -x {0.0 1.0 -1 ------- null}
r -t 0.627930000000001 -s 0 -d 1 -p cbr -e 210 -c 0 -i 36 -a 0 -x {0.0 1.0 31 ------- null}
+ -t 0.63 -s 0 -d 3 -p cbr -e 210 -c 0 -i 43 -a 0 -x {0.1 3.0 8 ------- null}
- -t 0.63 -s 0 -d 3 -p cbr -e 210 -c 0 -i 43 -a 0 -x {0.1 3.0 8 ------- null}
h -t 0.63 -s 0 -d 3 -p cbr -e 210 -c 0 -i 43 -a 0 -x {0.1 3.0 -1 ------- null}
r -t 0.63043 -s 0 -d 3 -p cbr -e 210 -c 0 -i 37 -a 0 -x {0.1 3.0 5 ------- null}
+ -t 0.631250000000001 -s 0 -d 1 -p cbr -e 210 -c 0 -i 44 -a 0 -x {0.0 1.0 35 ------- null}
- -t 0.631250000000001 -s 0 -d 1 -p cbr -e 210 -c 0 -i 44 -a 0 -x {0.0 1.0 35 ------- null}
h -t 0.631250000000001 -s 0 -d 1 -p cbr -e 210 -c 0 -i 44 -a 0 -x {0.0 1.0 -1 ------- null}
r -t 0.631680000000001 -s 0 -d 1 -p cbr -e 210 -c 0 -i 38 -a 0 -x {0.0 1.0 32 ------- null}
+ -t 0.63375 -s 0 -d 3 -p cbr -e 210 -c 0 -i 45 -a 0 -x {0.1 3.0 9 ------- null}
- -t 0.63375 -s 0 -d 3 -p cbr -e 210 -c 0 -i 45 -a 0 -x {0.1 3.0 9 ------- null}
h -t 0.63375 -s 0 -d 3 -p cbr -e 210 -c 0 -i 45 -a 0 -x {0.1 3.0 -1 ------- null}
r -t 0.63418 -s 0 -d 3 -p cbr -e 210 -c 0 -i 39 -a 0 -x {0.1 3.0 6 ------- null}
+ -t 0.635000000000001 -s 0 -d 1 -p cbr -e 210 -c 0 -i 46 -a 0 -x {0.0 1.0 36 ------- null}
- -t 0.635000000000001 -s 0 -d 1 -p cbr -e 210 -c 0 -i 46 -a 0 -x {0.0 1.0 36 ------- null}
h -t 0.635000000000001 -s 0 -d 1 -p cbr -e 210 -c 0 -i 46 -a 0 -x {0.0 1.0 -1 ------- null}
r -t 0.635430000000001 -s 0 -d 1 -p cbr -e 210 -c 0 -i 40 -a 0 -x {0.0 1.0 33 ------- null}
+ -t 0.6375 -s 0 -d 3 -p cbr -e 210 -c 0 -i 47 -a 0 -x {0.1 3.0 10 ------- null}
- -t 0.6375 -s 0 -d 3 -p cbr -e 210 -c 0 -i 47 -a 0 -x {0.1 3.0 10 ------- null}
h -t 0.6375 -s 0 -d 3 -p cbr -e 210 -c 0 -i 47 -a 0 -x {0.1 3.0 -1 ------- null}
r -t 0.63793 -s 0 -d 3 -p cbr -e 210 -c 0 -i 41 -a 0 -x {0.1 3.0 7 ------- null}
+ -t 0.638750000000001 -s 0 -d 1 -p cbr -e 210 -c 0 -i 48 -a 0 -x {0.0 1.0 37 ------- null}
- -t 0.638750000000001 -s 0 -d 1 -p cbr -e 210 -c 0 -i 48 -a 0 -x {0.0 1.0 37 ------- null}
h -t 0.638750000000001 -s 0 -d 1 -p cbr -e 210 -c 0 -i 48 -a 0 -x {0.0 1.0 -1 ------- null}
r -t 0.639180000000001 -s 0 -d 1 -p cbr -e 210 -c 0 -i 42 -a 0 -x {0.0 1.0 34 ------- null}
+ -t 0.64125 -s 0 -d 3 -p cbr -e 210 -c 0 -i 49 -a 0 -x {0.1 3.0 11 ------- null}
- -t 0.64125 -s 0 -d 3 -p cbr -e 210 -c 0 -i 49 -a 0 -x {0.1 3.0 11 ------- null}
h -t 0.64125 -s 0 -d 3 -p cbr -e 210 -c 0 -i 49 -a 0 -x {0.1 3.0 -1 ------- null}
r -t 0.64168 -s 0 -d 3 -p cbr -e 210 -c 0 -i 43 -a 0 -x {0.1 3.0 8 ------- null}
+ -t 0.642500000000001 -s 0 -d 1 -p cbr -e 210 -c 0 -i 50 -a 0 -x {0.0 1.0 38 ------- null}
- -t 0.642500000000001 -s 0 -d 1 -p cbr -e 210 -c 0 -i 50 -a 0 -x {0.0 1.0 38 ------- null}
h -t 0.642500000000001 -s 0 -d 1 -p cbr -e 210 -c 0 -i 50 -a 0 -x {0.0 1.0 -1 ------- null}
r -t 0.642930000000001 -s 0 -d 1 -p cbr -e 210 -c 0 -i 44 -a 0 -x {0.0 1.0 35 ------- null}
+ -t 0.645 -s 0 -d 3 -p cbr -e 210 -c 0 -i 51 -a 0 -x {0.1 3.0 12 ------- null}
- -t 0.645 -s 0 -d 3 -p cbr -e 210 -c 0 -i 51 -a 0 -x {0.1 3.0 12 ------- null}
h -t 0.645 -s 0 -d 3 -p cbr -e 210 -c 0 -i 51 -a 0 -x {0.1 3.0 -1 ------- null}
r -t 0.64543 -s 0 -d 3 -p cbr -e 210 -c 0 -i 45 -a 0 -x {0.1 3.0 9 ------- null}
+ -t 0.646250000000001 -s 0 -d 1 -p cbr -e 210 -c 0 -i 52 -a 0 -x {0.0 1.0 39 ------- null}
- -t 0.646250000000001 -s 0 -d 1 -p cbr -e 210 -c 0 -i 52 -a 0 -x {0.0 1.0 39 ------- null}
h -t 0.646250000000001 -s 0 -d 1 -p cbr -e 210 -c 0 -i 52 -a 0 -x {0.0 1.0 -1 ------- null}
r -t 0.646680000000001 -s 0 -d 1 -p cbr -e 210 -c 0 -i 46 -a 0 -x {0.0 1.0 36 ------- null}
+ -t 0.64875 -s 0 -d 3 -p cbr -e 210 -c 0 -i 53 -a 0 -x {0.1 3.0 13 ------- null}
- -t 0.64875 -s 0 -d 3 -p cbr -e 210 -c 0 -i 53 -a 0 -x {0.1 3.0 13 ------- null}
h -t 0.64875 -s 0 -d 3 -p cbr -e 210 -c 0 -i 53 -a 0 -x {0.1 3.0 -1 ------- null}
r -t 0.64918 -s 0 -d 3 -p cbr -e 210 -c 0 -i 47 -a 0 -x {0.1 3.0 10 ------- null}
+ -t 0.650000000000001 -s 0 -d 1 -p cbr -e 210 -c 0 -i 54 -a 0 -x {0.0 1.0 40 ------- null}
- -t 0.650000000000001 -s 0 -d 1 -p cbr -e 210 -c 0 -i 54 -a 0 -x {0.0 1.0 40 ------- null}
h -t 0.650000000000001 -s 0 -d 1 -p cbr -e 210 -c 0 -i 54 -a 0 -x {0.0 1.0 -1 ------- null}
r -t 0.650430000000001 -s 0 -d 1 -p cbr -e 210 -c 0 -i 48 -a 0 -x {0.0 1.0 37 ------- null}
+ -t 0.6525 -s 0 -d 3 -p cbr -e 210 -c 0 -i 55 -a 0 -x {0.1 3.0 14 ------- null}
- -t 0.6525 -s 0 -d 3 -p cbr -e 210 -c 0 -i 55 -a 0 -x {0.1 3.0 14 ------- null}
h -t 0.6525 -s 0 -d 3 -p cbr -e 210 -c 0 -i 55 -a 0 -x {0.1 3.0 -1 ------- null}
r -t 0.65293 -s 0 -d 3 -p cbr -e 210 -c 0 -i 49 -a 0 -x {0.1 3.0 11 ------- null}
+ -t 0.653750000000001 -s 0 -d 1 -p cbr -e 210 -c 0 -i 56 -a 0 -x {0.0 1.0 41 ------- null}
- -t 0.653750000000001 -s 0 -d 1 -p cbr -e 210 -c 0 -i 56 -a 0 -x {0.0 1.0 41 ------- null}
h -t 0.653750000000001 -s 0 -d 1 -p cbr -e 210 -c 0 -i 56 -a 0 -x {0.0 1.0 -1 ------- null}
r -t 0.654180000000001 -s 0 -d 1 -p cbr -e 210 -c 0 -i 50 -a 0 -x {0.0 1.0 38 ------- null}
+ -t 0.65625 -s 0 -d 3 -p cbr -e 210 -c 0 -i 57 -a 0 -x {0.1 3.0 15 ------- null}
- -t 0.65625 -s 0 -d 3 -p cbr -e 210 -c 0 -i 57 -a 0 -x {0.1 3.0 15 ------- null}
h -t 0.65625 -s 0 -d 3 -p cbr -e 210 -c 0 -i 57 -a 0 -x {0.1 3.0 -1 ------- null}
r -t 0.65668 -s 0 -d 3 -p cbr -e 210 -c 0 -i 51 -a 0 -x {0.1 3.0 12 ------- null}
+ -t 0.657500000000001 -s 0 -d 1 -p cbr -e 210 -c 0 -i 58 -a 0 -x {0.0 1.0 42 ------- null}
- -t 0.657500000000001 -s 0 -d 1 -p cbr -e 210 -c 0 -i 58 -a 0 -x {0.0 1.0 42 ------- null}
h -t 0.657500000000001 -s 0 -d 1 -p cbr -e 210 -c 0 -i 58 -a 0 -x {0.0 1.0 -1 ------- null}
r -t 0.657930000000001 -s 0 -d 1 -p cbr -e 210 -c 0 -i 52 -a 0 -x {0.0 1.0 39 ------- null}
+ -t 0.66 -s 0 -d 3 -p cbr -e 210 -c 0 -i 59 -a 0 -x {0.1 3.0 16 ------- null}
- -t 0.66 -s 0 -d 3 -p cbr -e 210 -c 0 -i 59 -a 0 -x {0.1 3.0 16 ------- null}
h -t 0.66 -s 0 -d 3 -p cbr -e 210 -c 0 -i 59 -a 0 -x {0.1 3.0 -1 ------- null}
r -t 0.66043 -s 0 -d 3 -p cbr -e 210 -c 0 -i 53 -a 0 -x {0.1 3.0 13 ------- null}
+ -t 0.661250000000001 -s 0 -d 1 -p cbr -e 210 -c 0 -i 60 -a 0 -x {0.0 1.0 43 ------- null}
- -t 0.661250000000001 -s 0 -d 1 -p cbr -e 210 -c 0 -i 60 -a 0 -x {0.0 1.0 43 ------- null}
h -t 0.661250000000001 -s 0 -d 1 -p cbr -e 210 -c 0 -i 60 -a 0 -x {0.0 1.0 -1 ------- null}
r -t 0.661680000000001 -s 0 -d 1 -p cbr -e 210 -c 0 -i 54 -a 0 -x {0.0 1.0 40 ------- null}
+ -t 0.663750000000001 -s 0 -d 3 -p cbr -e 210 -c 0 -i 61 -a 0 -x {0.1 3.0 17 ------- null}
- -t 0.663750000000001 -s 0 -d 3 -p cbr -e 210 -c 0 -i 61 -a 0 -x {0.1 3.0 17 ------- null}
h -t 0.663750000000001 -s 0 -d 3 -p cbr -e 210 -c 0 -i 61 -a 0 -x {0.1 3.0 -1 ------- null}
r -t 0.66418 -s 0 -d 3 -p cbr -e 210 -c 0 -i 55 -a 0 -x {0.1 3.0 14 ------- null}
+ -t 0.665000000000001 -s 0 -d 1 -p cbr -e 210 -c 0 -i 62 -a 0 -x {0.0 1.0 44 ------- null}
- -t 0.665000000000001 -s 0 -d 1 -p cbr -e 210 -c 0 -i 62 -a 0 -x {0.0 1.0 44 ------- null}
h -t 0.665000000000001 -s 0 -d 1 -p cbr -e 210 -c 0 -i 62 -a 0 -x {0.0 1.0 -1 ------- null}
r -t 0.665430000000001 -s 0 -d 1 -p cbr -e 210 -c 0 -i 56 -a 0 -x {0.0 1.0 41 ------- null}
+ -t 0.667500000000001 -s 0 -d 3 -p cbr -e 210 -c 0 -i 63 -a 0 -x {0.1 3.0 18 ------- null}
- -t 0.667500000000001 -s 0 -d 3 -p cbr -e 210 -c 0 -i 63 -a 0 -x {0.1 3.0 18 ------- null}
h -t 0.667500000000001 -s 0 -d 3 -p cbr -e 210 -c 0 -i 63 -a 0 -x {0.1 3.0 -1 ------- null}
r -t 0.66793 -s 0 -d 3 -p cbr -e 210 -c 0 -i 57 -a 0 -x {0.1 3.0 15 ------- null}
+ -t 0.668750000000001 -s 0 -d 1 -p cbr -e 210 -c 0 -i 64 -a 0 -x {0.0 1.0 45 ------- null}
- -t 0.668750000000001 -s 0 -d 1 -p cbr -e 210 -c 0 -i 64 -a 0 -x {0.0 1.0 45 ------- null}
h -t 0.668750000000001 -s 0 -d 1 -p cbr -e 210 -c 0 -i 64 -a 0 -x {0.0 1.0 -1 ------- null}
r -t 0.669180000000001 -s 0 -d 1 -p cbr -e 210 -c 0 -i 58 -a 0 -x {0.0 1.0 42 ------- null}
+ -t 0.671250000000001 -s 0 -d 3 -p cbr -e 210 -c 0 -i 65 -a 0 -x {0.1 3.0 19 ------- null}
- -t 0.671250000000001 -s 0 -d 3 -p cbr -e 210 -c 0 -i 65 -a 0 -x {0.1 3.0 19 ------- null}
h -t 0.671250000000001 -s 0 -d 3 -p cbr -e 210 -c 0 -i 65 -a 0 -x {0.1 3.0 -1 ------- null}
r -t 0.67168 -s 0 -d 3 -p cbr -e 210 -c 0 -i 59 -a 0 -x {0.1 3.0 16 ------- null}
+ -t 0.672500000000001 -s 0 -d 1 -p cbr -e 210 -c 0 -i 66 -a 0 -x {0.0 1.0 46 ------- null}
- -t 0.672500000000001 -s 0 -d 1 -p cbr -e 210 -c 0 -i 66 -a 0 -x {0.0 1.0 46 ------- null}
h -t 0.672500000000001 -s 0 -d 1 -p cbr -e 210 -c 0 -i 66 -a 0 -x {0.0 1.0 -1 ------- null}
r -t 0.672930000000001 -s 0 -d 1 -p cbr -e 210 -c 0 -i 60 -a 0 -x {0.0 1.0 43 ------- null}
+ -t 0.675000000000001 -s 0 -d 3 -p cbr -e 210 -c 0 -i 67 -a 0 -x {0.1 3.0 20 ------- null}
- -t 0.675000000000001 -s 0 -d 3 -p cbr -e 210 -c 0 -i 67 -a 0 -x {0.1 3.0 20 ------- null}
h -t 0.675000000000001 -s 0 -d 3 -p cbr -e 210 -c 0 -i 67 -a 0 -x {0.1 3.0 -1 ------- null}
r -t 0.675430000000001 -s 0 -d 3 -p cbr -e 210 -c 0 -i 61 -a 0 -x {0.1 3.0 17 ------- null}
+ -t 0.676250000000001 -s 0 -d 1 -p cbr -e 210 -c 0 -i 68 -a 0 -x {0.0 1.0 47 ------- null}
- -t 0.676250000000001 -s 0 -d 1 -p cbr -e 210 -c 0 -i 68 -a 0 -x {0.0 1.0 47 ------- null}
h -t 0.676250000000001 -s 0 -d 1 -p cbr -e 210 -c 0 -i 68 -a 0 -x {0.0 1.0 -1 ------- null}
r -t 0.676680000000001 -s 0 -d 1 -p cbr -e 210 -c 0 -i 62 -a 0 -x {0.0 1.0 44 ------- null}
+ -t 0.678750000000001 -s 0 -d 3 -p cbr -e 210 -c 0 -i 69 -a 0 -x {0.1 3.0 21 ------- null}
- -t 0.678750000000001 -s 0 -d 3 -p cbr -e 210 -c 0 -i 69 -a 0 -x {0.1 3.0 21 ------- null}
h -t 0.678750000000001 -s 0 -d 3 -p cbr -e 210 -c 0 -i 69 -a 0 -x {0.1 3.0 -1 ------- null}
r -t 0.679180000000001 -s 0 -d 3 -p cbr -e 210 -c 0 -i 63 -a 0 -x {0.1 3.0 18 ------- null}
+ -t 0.680000000000001 -s 0 -d 1 -p cbr -e 210 -c 0 -i 70 -a 0 -x {0.0 1.0 48 ------- null}
- -t 0.680000000000001 -s 0 -d 1 -p cbr -e 210 -c 0 -i 70 -a 0 -x {0.0 1.0 48 ------- null}
h -t 0.680000000000001 -s 0 -d 1 -p cbr -e 210 -c 0 -i 70 -a 0 -x {0.0 1.0 -1 ------- null}
r -t 0.680430000000001 -s 0 -d 1 -p cbr -e 210 -c 0 -i 64 -a 0 -x {0.0 1.0 45 ------- null}
+ -t 0.682500000000001 -s 0 -d 3 -p cbr -e 210 -c 0 -i 71 -a 0 -x {0.1 3.0 22 ------- null}
- -t 0.682500000000001 -s 0 -d 3 -p cbr -e 210 -c 0 -i 71 -a 0 -x {0.1 3.0 22 ------- null}
h -t 0.682500000000001 -s 0 -d 3 -p cbr -e 210 -c 0 -i 71 -a 0 -x {0.1 3.0 -1 ------- null}
r -t 0.682930000000001 -s 0 -d 3 -p cbr -e 210 -c 0 -i 65 -a 0 -x {0.1 3.0 19 ------- null}
+ -t 0.683750000000002 -s 0 -d 1 -p cbr -e 210 -c 0 -i 72 -a 0 -x {0.0 1.0 49 ------- null}
- -t 0.683750000000002 -s 0 -d 1 -p cbr -e 210 -c 0 -i 72 -a 0 -x {0.0 1.0 49 ------- null}
h -t 0.683750000000002 -s 0 -d 1 -p cbr -e 210 -c 0 -i 72 -a 0 -x {0.0 1.0 -1 ------- null}
r -t 0.684180000000001 -s 0 -d 1 -p cbr -e 210 -c 0 -i 66 -a 0 -x {0.0 1.0 46 ------- null}
+ -t 0.686250000000001 -s 0 -d 3 -p cbr -e 210 -c 0 -i 73 -a 0 -x {0.1 3.0 23 ------- null}
- -t 0.686250000000001 -s 0 -d 3 -p cbr -e 210 -c 0 -i 73 -a 0 -x {0.1 3.0 23 ------- null}
h -t 0.686250000000001 -s 0 -d 3 -p cbr -e 210 -c 0 -i 73 -a 0 -x {0.1 3.0 -1 ------- null}
r -t 0.686680000000001 -s 0 -d 3 -p cbr -e 210 -c 0 -i 67 -a 0 -x {0.1 3.0 20 ------- null}
+ -t 0.687500000000002 -s 0 -d 1 -p cbr -e 210 -c 0 -i 74 -a 0 -x {0.0 1.0 50 ------- null}
- -t 0.687500000000002 -s 0 -d 1 -p cbr -e 210 -c 0 -i 74 -a 0 -x {0.0 1.0 50 ------- null}
h -t 0.687500000000002 -s 0 -d 1 -p cbr -e 210 -c 0 -i 74 -a 0 -x {0.0 1.0 -1 ------- null}
r -t 0.687930000000001 -s 0 -d 1 -p cbr -e 210 -c 0 -i 68 -a 0 -x {0.0 1.0 47 ------- null}
+ -t 0.690000000000001 -s 0 -d 3 -p cbr -e 210 -c 0 -i 75 -a 0 -x {0.1 3.0 24 ------- null}
- -t 0.690000000000001 -s 0 -d 3 -p cbr -e 210 -c 0 -i 75 -a 0 -x {0.1 3.0 24 ------- null}
h -t 0.690000000000001 -s 0 -d 3 -p cbr -e 210 -c 0 -i 75 -a 0 -x {0.1 3.0 -1 ------- null}
r -t 0.690430000000001 -s 0 -d 3 -p cbr -e 210 -c 0 -i 69 -a 0 -x {0.1 3.0 21 ------- null}
+ -t 0.691250000000002 -s 0 -d 1 -p cbr -e 210 -c 0 -i 76 -a 0 -x {0.0 1.0 51 ------- null}
- -t 0.691250000000002 -s 0 -d 1 -p cbr -e 210 -c 0 -i 76 -a 0 -x {0.0 1.0 51 ------- null}
h -t 0.691250000000002 -s 0 -d 1 -p cbr -e 210 -c 0 -i 76 -a 0 -x {0.0 1.0 -1 ------- null}
r -t 0.691680000000002 -s 0 -d 1 -p cbr -e 210 -c 0 -i 70 -a 0 -x {0.0 1.0 48 ------- null}
+ -t 0.693750000000001 -s 0 -d 3 -p cbr -e 210 -c 0 -i 77 -a 0 -x {0.1 3.0 25 ------- null}
- -t 0.693750000000001 -s 0 -d 3 -p cbr -e 210 -c 0 -i 77 -a 0 -x {0.1 3.0 25 ------- null}
h -t 0.693750000000001 -s 0 -d 3 -p cbr -e 210 -c 0 -i 77 -a 0 -x {0.1 3.0 -1 ------- null}
r -t 0.694180000000001 -s 0 -d 3 -p cbr -e 210 -c 0 -i 71 -a 0 -x {0.1 3.0 22 ------- null}
+ -t 0.695000000000002 -s 0 -d 1 -p cbr -e 210 -c 0 -i 78 -a 0 -x {0.0 1.0 52 ------- null}
- -t 0.695000000000002 -s 0 -d 1 -p cbr -e 210 -c 0 -i 78 -a 0 -x {0.0 1.0 52 ------- null}
h -t 0.695000000000002 -s 0 -d 1 -p cbr -e 210 -c 0 -i 78 -a 0 -x {0.0 1.0 -1 ------- null}
r -t 0.695430000000002 -s 0 -d 1 -p cbr -e 210 -c 0 -i 72 -a 0 -x {0.0 1.0 49 ------- null}
+ -t 0.697500000000001 -s 0 -d 3 -p cbr -e 210 -c 0 -i 79 -a 0 -x {0.1 3.0 26 ------- null}
- -t 0.697500000000001 -s 0 -d 3 -p cbr -e 210 -c 0 -i 79 -a 0 -x {0.1 3.0 26 ------- null}
h -t 0.697500000000001 -s 0 -d 3 -p cbr -e 210 -c 0 -i 79 -a 0 -x {0.1 3.0 -1 ------- null}
r -t 0.697930000000001 -s 0 -d 3 -p cbr -e 210 -c 0 -i 73 -a 0 -x {0.1 3.0 23 ------- null}
+ -t 0.698750000000002 -s 0 -d 1 -p cbr -e 210 -c 0 -i 80 -a 0 -x {0.0 1.0 53 ------- null}
- -t 0.698750000000002 -s 0 -d 1 -p cbr -e 210 -c 0 -i 80 -a 0 -x {0.0 1.0 53 ------- null}
h -t 0.698750000000002 -s 0 -d 1 -p cbr -e 210 -c 0 -i 80 -a 0 -x {0.0 1.0 -1 ------- null}
r -t 0.699180000000002 -s 0 -d 1 -p cbr -e 210 -c 0 -i 74 -a 0 -x {0.0 1.0 50 ------- null}
+ -t 0.701250000000001 -s 0 -d 3 -p cbr -e 210 -c 0 -i 81 -a 0 -x {0.1 3.0 27 ------- null}
- -t 0.701250000000001 -s 0 -d 3 -p cbr -e 210 -c 0 -i 81 -a 0 -x {0.1 3.0 27 ------- null}
h -t 0.701250000000001 -s 0 -d 3 -p cbr -e 210 -c 0 -i 81 -a 0 -x {0.1 3.0 -1 ------- null}
r -t 0.701680000000001 -s 0 -d 3 -p cbr -e 210 -c 0 -i 75 -a 0 -x {0.1 3.0 24 ------- null}
+ -t 0.702500000000002 -s 0 -d 1 -p cbr -e 210 -c 0 -i 82 -a 0 -x {0.0 1.0 54 ------- null}
- -t 0.702500000000002 -s 0 -d 1 -p cbr -e 210 -c 0 -i 82 -a 0 -x {0.0 1.0 54 ------- null}
h -t 0.702500000000002 -s 0 -d 1 -p cbr -e 210 -c 0 -i 82 -a 0 -x {0.0 1.0 -1 ------- null}
r -t 0.702930000000002 -s 0 -d 1 -p cbr -e 210 -c 0 -i 76 -a 0 -x {0.0 1.0 51 ------- null}
+ -t 0.705000000000001 -s 0 -d 3 -p cbr -e 210 -c 0 -i 83 -a 0 -x {0.1 3.0 28 ------- null}
- -t 0.705000000000001 -s 0 -d 3 -p cbr -e 210 -c 0 -i 83 -a 0 -x {0.1 3.0 28 ------- null}
h -t 0.705000000000001 -s 0 -d 3 -p cbr -e 210 -c 0 -i 83 -a 0 -x {0.1 3.0 -1 ------- null}
r -t 0.705430000000001 -s 0 -d 3 -p cbr -e 210 -c 0 -i 77 -a 0 -x {0.1 3.0 25 ------- null}
+ -t 0.706250000000002 -s 0 -d 1 -p cbr -e 210 -c 0 -i 84 -a 0 -x {0.0 1.0 55 ------- null}
- -t 0.706250000000002 -s 0 -d 1 -p cbr -e 210 -c 0 -i 84 -a 0 -x {0.0 1.0 55 ------- null}
h -t 0.706250000000002 -s 0 -d 1 -p cbr -e 210 -c 0 -i 84 -a 0 -x {0.0 1.0 -1 ------- null}
r -t 0.706680000000002 -s 0 -d 1 -p cbr -e 210 -c 0 -i 78 -a 0 -x {0.0 1.0 52 ------- null}
+ -t 0.708750000000001 -s 0 -d 3 -p cbr -e 210 -c 0 -i 85 -a 0 -x {0.1 3.0 29 ------- null}